
     Program MATDYN v.7.3.1 starts on  4Mar2026 at 18:55:35 

     This program is part of the open-source Quantum ESPRESSO suite
     for quantum simulation of materials; please cite
         "P. Giannozzi et al., J. Phys.:Condens. Matter 21 395502 (2009);
         "P. Giannozzi et al., J. Phys.:Condens. Matter 29 465901 (2017);
         "P. Giannozzi et al., J. Chem. Phys. 152 154105 (2020);
          URL http://www.quantum-espresso.org", 
     in publications or presentations arising from this work. More details at
     http://www.quantum-espresso.org/quote

     Parallel version (MPI), running on     1 processors

     MPI processes distributed on     1 nodes
     140397 MiB available memory on the printing compute node when the environment starts

 end of file reached, closing tag not found
 mass for atomic type   1 not given; uses mass from file MoS2.fc                                                                                                                                                                                                                                                         
 mass for atomic type   2 not given; uses mass from file MoS2.fc                                                                                                                                                                                                                                                         
 Norm of the difference between old and new effective charges:    0.00000000000000000000

 Norm of the difference between old and new force-constants:   0.00569548994537600467

          xq=  0.0000  0.0000  0.0000
          xq=  0.0083  0.0144  0.0000
          xq=  0.0167  0.0289  0.0000
          xq=  0.0250  0.0433  0.0000
          xq=  0.0333  0.0577  0.0000
          xq=  0.0417  0.0722  0.0000
          xq=  0.0500  0.0866  0.0000
          xq=  0.0583  0.1010  0.0000
          xq=  0.0667  0.1155  0.0000
          xq=  0.0750  0.1299  0.0000
          xq=  0.0833  0.1443  0.0000
          xq=  0.0917  0.1588  0.0000
          xq=  0.1000  0.1732  0.0000
          xq=  0.1083  0.1876  0.0000
          xq=  0.1167  0.2021  0.0000
          xq=  0.1250  0.2165  0.0000
          xq=  0.1333  0.2309  0.0000
          xq=  0.1417  0.2454  0.0000
          xq=  0.1500  0.2598  0.0000
          xq=  0.1583  0.2742  0.0000
          xq=  0.1667  0.2887  0.0000
          xq=  0.1750  0.3031  0.0000
          xq=  0.1833  0.3175  0.0000
          xq=  0.1917  0.3320  0.0000
          xq=  0.2000  0.3464  0.0000
          xq=  0.2083  0.3608  0.0000
          xq=  0.2167  0.3753  0.0000
          xq=  0.2250  0.3897  0.0000
          xq=  0.2333  0.4041  0.0000
          xq=  0.2417  0.4186  0.0000
          xq=  0.2500  0.4330  0.0000
          xq=  0.2583  0.4474  0.0000
          xq=  0.2667  0.4619  0.0000
          xq=  0.2750  0.4763  0.0000
          xq=  0.2833  0.4907  0.0000
          xq=  0.2917  0.5052  0.0000
          xq=  0.3000  0.5196  0.0000
          xq=  0.3083  0.5340  0.0000
          xq=  0.3167  0.5485  0.0000
          xq=  0.3250  0.5629  0.0000
          xq=  0.3333  0.5774  0.0000
          xq=  0.3229  0.5774  0.0000
          xq=  0.3125  0.5774  0.0000
          xq=  0.3021  0.5774  0.0000
          xq=  0.2917  0.5774  0.0000
          xq=  0.2812  0.5774  0.0000
          xq=  0.2708  0.5774  0.0000
          xq=  0.2604  0.5774  0.0000
          xq=  0.2500  0.5774  0.0000
          xq=  0.2396  0.5774  0.0000
          xq=  0.2292  0.5774  0.0000
          xq=  0.2187  0.5774  0.0000
          xq=  0.2083  0.5774  0.0000
          xq=  0.1979  0.5774  0.0000
          xq=  0.1875  0.5774  0.0000
          xq=  0.1771  0.5774  0.0000
          xq=  0.1667  0.5774  0.0000
          xq=  0.1562  0.5774  0.0000
          xq=  0.1458  0.5774  0.0000
          xq=  0.1354  0.5774  0.0000
          xq=  0.1250  0.5774  0.0000
          xq=  0.1146  0.5774  0.0000
          xq=  0.1042  0.5774  0.0000
          xq=  0.0937  0.5774  0.0000
          xq=  0.0833  0.5774  0.0000
          xq=  0.0729  0.5774  0.0000
          xq=  0.0625  0.5774  0.0000
          xq=  0.0521  0.5774  0.0000
          xq=  0.0417  0.5774  0.0000
          xq=  0.0312  0.5774  0.0000
          xq=  0.0208  0.5774  0.0000
          xq=  0.0104  0.5774  0.0000
          xq=  0.0000  0.5774  0.0000
          xq=  0.0000  0.5533  0.0000
          xq=  0.0000  0.5292  0.0000
          xq=  0.0000  0.5052  0.0000
          xq=  0.0000  0.4811  0.0000
          xq=  0.0000  0.4571  0.0000
          xq=  0.0000  0.4330  0.0000
          xq=  0.0000  0.4090  0.0000
          xq=  0.0000  0.3849  0.0000
          xq=  0.0000  0.3608  0.0000
          xq=  0.0000  0.3368  0.0000
          xq=  0.0000  0.3127  0.0000
          xq=  0.0000  0.2887  0.0000
          xq=  0.0000  0.2646  0.0000
          xq=  0.0000  0.2406  0.0000
          xq=  0.0000  0.2165  0.0000
          xq=  0.0000  0.1925  0.0000
          xq=  0.0000  0.1684  0.0000
          xq=  0.0000  0.1443  0.0000
          xq=  0.0000  0.1203  0.0000
          xq=  0.0000  0.0962  0.0000
          xq=  0.0000  0.0722  0.0000
          xq=  0.0000  0.0481  0.0000
          xq=  0.0000  0.0241  0.0000
          xq=  0.0000  0.0000  0.0000

     MATDYN       :      0.05s CPU      0.21s WALL


   This run was terminated on:  18:55:35   4Mar2026            

=------------------------------------------------------------------------------=
   JOB DONE.
=------------------------------------------------------------------------------=
