
     Program PHONON v.7.5 starts on  5Mar2026 at 17:56:17 
        Git branch: HEAD
        Last git commit: 770a0b2d12928a67048e2f3da8d10d057e52179e
        Last git commit date: Tue Aug 19 09:57:12 2025 +0000
        Last git commit subject: Merge branch 'QE-7.5-RC' into 'master'

     This program is part of the open-source Quantum ESPRESSO suite
     for quantum simulation of materials; please cite
         "P. Giannozzi et al., J. Phys.:Condens. Matter 21 395502 (2009);
         "P. Giannozzi et al., J. Phys.:Condens. Matter 29 465901 (2017);
         "P. Giannozzi et al., J. Chem. Phys. 152 154105 (2020);
          URL http://www.quantum-espresso.org", 
     in publications or presentations arising from this work. More details at
     http://www.quantum-espresso.org/quote

     Parallel version (MPI), running on    64 processors

     MPI processes distributed on     4 nodes
     241196 MiB available memory on the printing compute node when the environment starts

     Waiting for input...
     Reading input from standard input
      Title line not specified: using 'default'.

     Reading xml data from directory:

     ./MoS2.save/

     R & G space division:  proc/nbgrp/npool/nimage =      64
     Subspace diagonalization in iterative solution of the eigenvalue problem:
     a serial algorithm will be used


     IMPORTANT: XC functional enforced from input :
     Exchange-correlation= PBESOL
                           (   1   4  10   8   0   0   0)
     Any further DFT definition will be discarded
     Please, verify this is what you really want


     Parallelization info
     --------------------
     sticks:   dense  smooth     PW     G-vecs:    dense   smooth      PW
     Min          30      15      4                 7300     2568     388
     Max          31      17      5                 7337     2593     413
     Sum        1945     967    283               468457   165261   25403

     Using Slab Decomposition

     Reading collected, re-writing distributed wavefunctions in ./

     Saving dvscf to file. Distribute only q points, not irreducible representations.
        7 /   7 q-points for this run, from  1 to  7:
       N       xq(1)         xq(2)         xq(3) 
       1  -0.000000000  -0.000000000  -0.000000000
       2  -0.000000003  -0.192450106  -0.000000000
       3  -0.000000006  -0.384900212  -0.000000000
       4   0.000000009   0.577350318  -0.000000000
       5  -0.166666687  -0.288675159  -0.000000000
       6  -0.166666701  -0.481125176  -0.000000000
       7  -0.333333373  -0.577350318  -0.000000000


     Calculation of q =   -0.0000000  -0.0000000  -0.0000000

     default                                                                    

     bravais-lattice index     =            4
     lattice parameter (alat)  =       5.9477  a.u.
     unit-cell volume          =    1225.4506 (a.u.)^3
     number of atoms/cell      =            3
     number of atomic types    =            2
     kinetic-energy cut-off    =     100.0000  Ry
     charge density cut-off    =     800.0000  Ry
     convergence threshold     =      1.0E-12
     beta                      =       0.1000
     number of iterations used =            4
     Exchange-correlation= PBESOL
                           (   1   4  10   8   0   0   0)


     celldm(1)=    5.94775  celldm(2)=    0.00000  celldm(3)=    6.72523
     celldm(4)=    0.00000  celldm(5)=    0.00000  celldm(6)=    0.00000

     crystal axes: (cart. coord. in units of alat)
               a(1) = (  1.0000  0.0000  0.0000 )  
               a(2) = ( -0.5000  0.8660  0.0000 )  
               a(3) = (  0.0000  0.0000  6.7252 )  

     reciprocal axes: (cart. coord. in units 2 pi/alat)
               b(1) = (  1.0000  0.5774 -0.0000 )  
               b(2) = (  0.0000  1.1547  0.0000 )  
               b(3) = (  0.0000 -0.0000  0.1487 )  


     Atoms inside the unit cell: 

     Cartesian axes

     site n.  atom      mass           positions (alat units)
        1  Mo     95.9500   tau(    1) = (   -0.00000    0.57735    0.00000  )
        2  S      32.0650   tau(    2) = (    0.50000    0.28868    0.49450  )
        3  S      32.0650   tau(    3) = (    0.50000    0.28868   -0.49450  )

     Computing dynamical matrix for 
                    q = (  -0.0000000  -0.0000000  -0.0000000 )

     13 Sym.Ops. (with q -> -q+G )

                                    s                        frac. trans.

      isym =  1     identity                                     

 cryst.   s( 1) = (     1          0          0      )
                  (     0          1          0      )
                  (     0          0          1      )

 cart.    s( 1) = (  1.0000000  0.0000000  0.0000000 )
                  (  0.0000000  1.0000000  0.0000000 )
                  (  0.0000000  0.0000000  1.0000000 )


      isym =  2     180 deg rotation - cart. axis [0,1,0]        

 cryst.   s( 2) = (    -1          0          0      )
                  (     1          1          0      )
                  (     0          0         -1      )

 cart.    s( 2) = ( -1.0000000  0.0000000  0.0000000 )
                  (  0.0000000  1.0000000  0.0000000 )
                  (  0.0000000  0.0000000 -1.0000000 )


      isym =  3     120 deg rotation - cryst. axis [0,0,1]       

 cryst.   s( 3) = (     0          1          0      )
                  (    -1         -1          0      )
                  (     0          0          1      )

 cart.    s( 3) = ( -0.5000000 -0.8660254  0.0000000 )
                  (  0.8660254 -0.5000000  0.0000000 )
                  (  0.0000000  0.0000000  1.0000000 )


      isym =  4     120 deg rotation - cryst. axis [0,0,-1]      

 cryst.   s( 4) = (    -1         -1          0      )
                  (     1          0          0      )
                  (     0          0          1      )

 cart.    s( 4) = ( -0.5000000  0.8660254  0.0000000 )
                  ( -0.8660254 -0.5000000  0.0000000 )
                  (  0.0000000  0.0000000  1.0000000 )


      isym =  5     180 deg rotation - cryst. axis [1,-1,0]      

 cryst.   s( 5) = (     0         -1          0      )
                  (    -1          0          0      )
                  (     0          0         -1      )

 cart.    s( 5) = (  0.5000000 -0.8660254  0.0000000 )
                  ( -0.8660254 -0.5000000  0.0000000 )
                  (  0.0000000  0.0000000 -1.0000000 )


      isym =  6     180 deg rotation - cryst. axis [2,1,0]       

 cryst.   s( 6) = (     1          1          0      )
                  (     0         -1          0      )
                  (     0          0         -1      )

 cart.    s( 6) = (  0.5000000  0.8660254  0.0000000 )
                  (  0.8660254 -0.5000000  0.0000000 )
                  (  0.0000000  0.0000000 -1.0000000 )


      isym =  7     inv. 180 deg rotation - cart. axis [0,0,1]   

 cryst.   s( 7) = (     1          0          0      )
                  (     0          1          0      )
                  (     0          0         -1      )

 cart.    s( 7) = (  1.0000000  0.0000000  0.0000000 )
                  (  0.0000000  1.0000000  0.0000000 )
                  (  0.0000000  0.0000000 -1.0000000 )


      isym =  8     inv. 180 deg rotation - cart. axis [1,0,0]   

 cryst.   s( 8) = (    -1          0          0      )
                  (     1          1          0      )
                  (     0          0          1      )

 cart.    s( 8) = ( -1.0000000  0.0000000  0.0000000 )
                  (  0.0000000  1.0000000  0.0000000 )
                  (  0.0000000  0.0000000  1.0000000 )


      isym =  9     inv.  60 deg rotation - cryst. axis [0,0,1]  

 cryst.   s( 9) = (    -1         -1          0      )
                  (     1          0          0      )
                  (     0          0         -1      )

 cart.    s( 9) = ( -0.5000000  0.8660254  0.0000000 )
                  ( -0.8660254 -0.5000000  0.0000000 )
                  (  0.0000000  0.0000000 -1.0000000 )


      isym = 10     inv.  60 deg rotation - cryst. axis [0,0,-1] 

 cryst.   s(10) = (     0          1          0      )
                  (    -1         -1          0      )
                  (     0          0         -1      )

 cart.    s(10) = ( -0.5000000 -0.8660254  0.0000000 )
                  (  0.8660254 -0.5000000  0.0000000 )
                  (  0.0000000  0.0000000 -1.0000000 )


      isym = 11     inv. 180 deg rotation - cryst. axis [0,1,0]  

 cryst.   s(11) = (     1          1          0      )
                  (     0         -1          0      )
                  (     0          0          1      )

 cart.    s(11) = (  0.5000000  0.8660254  0.0000000 )
                  (  0.8660254 -0.5000000  0.0000000 )
                  (  0.0000000  0.0000000  1.0000000 )


      isym = 12     inv. 180 deg rotation - cryst. axis [1,1,0]  

 cryst.   s(12) = (     0         -1          0      )
                  (    -1          0          0      )
                  (     0          0          1      )

 cart.    s(12) = (  0.5000000 -0.8660254  0.0000000 )
                  ( -0.8660254 -0.5000000  0.0000000 )
                  (  0.0000000  0.0000000  1.0000000 )


     This transformation sends q -> -q+G

      isym = 13     identity                                     

 cryst.   s(13) = (     1          0          0      )
                  (     0          1          0      )
                  (     0          0          1      )

 cart.    s(13) = (  1.0000000  0.0000000  0.0000000 )
                  (  0.0000000  1.0000000  0.0000000 )
                  (  0.0000000  0.0000000  1.0000000 )


     G cutoff =  716.8618  (   7312 G-vectors)     FFT grid: ( 60, 60,420)
     G cutoff =  358.4309  (   2568 G-vectors)  smooth grid: ( 48, 48,300)
     number of k points=    37
                       cart. coord. in units 2pi/alat
        k(    1) = (   0.0000000   0.0000000   0.0000000), wk =   0.0061728
        k(    2) = (   0.0000000   0.0641500   0.0000000), wk =   0.0370370
        k(    3) = (   0.0000000   0.1283001   0.0000000), wk =   0.0370370
        k(    4) = (   0.0000000   0.1924501   0.0000000), wk =   0.0370370
        k(    5) = (   0.0000000   0.2566001   0.0000000), wk =   0.0370370
        k(    6) = (   0.0000000   0.3207501   0.0000000), wk =   0.0370370
        k(    7) = (   0.0000000   0.3849002   0.0000000), wk =   0.0370370
        k(    8) = (   0.0000000   0.4490502   0.0000000), wk =   0.0370370
        k(    9) = (   0.0000000   0.5132002   0.0000000), wk =   0.0370370
        k(   10) = (   0.0000000  -0.5773503   0.0000000), wk =   0.0185185
        k(   11) = (   0.0555556   0.0962250   0.0000000), wk =   0.0370370
        k(   12) = (   0.0555556   0.1603751   0.0000000), wk =   0.0740741
        k(   13) = (   0.0555556   0.2245251   0.0000000), wk =   0.0740741
        k(   14) = (   0.0555556   0.2886751   0.0000000), wk =   0.0740741
        k(   15) = (   0.0555556   0.3528252   0.0000000), wk =   0.0740741
        k(   16) = (   0.0555556   0.4169752   0.0000000), wk =   0.0740741
        k(   17) = (   0.0555556   0.4811252   0.0000000), wk =   0.0740741
        k(   18) = (   0.0555556   0.5452753   0.0000000), wk =   0.0740741
        k(   19) = (   0.1111111   0.1924501   0.0000000), wk =   0.0370370
        k(   20) = (   0.1111111   0.2566001   0.0000000), wk =   0.0740741
        k(   21) = (   0.1111111   0.3207501   0.0000000), wk =   0.0740741
        k(   22) = (   0.1111111   0.3849002   0.0000000), wk =   0.0740741
        k(   23) = (   0.1111111   0.4490502   0.0000000), wk =   0.0740741
        k(   24) = (   0.1111111   0.5132002   0.0000000), wk =   0.0740741
        k(   25) = (   0.1111111   0.5773503   0.0000000), wk =   0.0370370
        k(   26) = (   0.1666667   0.2886751   0.0000000), wk =   0.0370370
        k(   27) = (   0.1666667   0.3528252   0.0000000), wk =   0.0740741
        k(   28) = (   0.1666667   0.4169752   0.0000000), wk =   0.0740741
        k(   29) = (   0.1666667   0.4811252   0.0000000), wk =   0.0740741
        k(   30) = (   0.1666667   0.5452753   0.0000000), wk =   0.0740741
        k(   31) = (   0.2222222   0.3849002   0.0000000), wk =   0.0370370
        k(   32) = (   0.2222222   0.4490502   0.0000000), wk =   0.0740741
        k(   33) = (   0.2222222   0.5132002   0.0000000), wk =   0.0740741
        k(   34) = (   0.2222222   0.5773503   0.0000000), wk =   0.0370370
        k(   35) = (   0.2777778   0.4811252   0.0000000), wk =   0.0370370
        k(   36) = (   0.2777778   0.5452753   0.0000000), wk =   0.0740741
        k(   37) = (   0.3333333   0.5773503   0.0000000), wk =   0.0123457

                       cryst. coord.
        k(    1) = (   0.0000000   0.0000000   0.0000000), wk =   0.0061728
        k(    2) = (   0.0000000   0.0555556   0.0000000), wk =   0.0370370
        k(    3) = (   0.0000000   0.1111111   0.0000000), wk =   0.0370370
        k(    4) = (   0.0000000   0.1666667   0.0000000), wk =   0.0370370
        k(    5) = (   0.0000000   0.2222222   0.0000000), wk =   0.0370370
        k(    6) = (   0.0000000   0.2777778   0.0000000), wk =   0.0370370
        k(    7) = (   0.0000000   0.3333333   0.0000000), wk =   0.0370370
        k(    8) = (   0.0000000   0.3888889   0.0000000), wk =   0.0370370
        k(    9) = (   0.0000000   0.4444444   0.0000000), wk =   0.0370370
        k(   10) = (   0.0000000  -0.5000000   0.0000000), wk =   0.0185185
        k(   11) = (   0.0555556   0.0555556   0.0000000), wk =   0.0370370
        k(   12) = (   0.0555556   0.1111111   0.0000000), wk =   0.0740741
        k(   13) = (   0.0555556   0.1666667   0.0000000), wk =   0.0740741
        k(   14) = (   0.0555556   0.2222222   0.0000000), wk =   0.0740741
        k(   15) = (   0.0555556   0.2777778   0.0000000), wk =   0.0740741
        k(   16) = (   0.0555556   0.3333333   0.0000000), wk =   0.0740741
        k(   17) = (   0.0555556   0.3888889   0.0000000), wk =   0.0740741
        k(   18) = (   0.0555556   0.4444444   0.0000000), wk =   0.0740741
        k(   19) = (   0.1111111   0.1111111   0.0000000), wk =   0.0370370
        k(   20) = (   0.1111111   0.1666667   0.0000000), wk =   0.0740741
        k(   21) = (   0.1111111   0.2222222   0.0000000), wk =   0.0740741
        k(   22) = (   0.1111111   0.2777778   0.0000000), wk =   0.0740741
        k(   23) = (   0.1111111   0.3333333   0.0000000), wk =   0.0740741
        k(   24) = (   0.1111111   0.3888889   0.0000000), wk =   0.0740741
        k(   25) = (   0.1111111   0.4444444   0.0000000), wk =   0.0370370
        k(   26) = (   0.1666667   0.1666667   0.0000000), wk =   0.0370370
        k(   27) = (   0.1666667   0.2222222   0.0000000), wk =   0.0740741
        k(   28) = (   0.1666667   0.2777778   0.0000000), wk =   0.0740741
        k(   29) = (   0.1666667   0.3333333   0.0000000), wk =   0.0740741
        k(   30) = (   0.1666667   0.3888889   0.0000000), wk =   0.0740741
        k(   31) = (   0.2222222   0.2222222   0.0000000), wk =   0.0370370
        k(   32) = (   0.2222222   0.2777778   0.0000000), wk =   0.0740741
        k(   33) = (   0.2222222   0.3333333   0.0000000), wk =   0.0740741
        k(   34) = (   0.2222222   0.3888889   0.0000000), wk =   0.0370370
        k(   35) = (   0.2777778   0.2777778   0.0000000), wk =   0.0370370
        k(   36) = (   0.2777778   0.3333333   0.0000000), wk =   0.0740741
        k(   37) = (   0.3333333   0.3333333   0.0000000), wk =   0.0123457

     PseudoPot. # 1 for Mo read from file:
     ../pseudo/Mo.pbesol.dojo.upf
     MD5 check sum: c40353276b9086539cda6b9e5a66907b
     Pseudo is Norm-conserving + core correction, Zval = 14.0
     Generated using ONCVPSP code by D. R. Hamann
     Using radial grid of 1640 points,  6 beta functions with: 
                l(1) =   0
                l(2) =   0
                l(3) =   1
                l(4) =   1
                l(5) =   2
                l(6) =   2

     PseudoPot. # 2 for S  read from file:
     ../pseudo/S.pbesol.dojo.upf
     MD5 check sum: 501737efeeef1fb1c631cda521d4e019
     Pseudo is Norm-conserving + core correction, Zval =  6.0
     Generated using ONCVPSP code by D. R. Hamann
     Using radial grid of 1146 points,  6 beta functions with: 
                l(1) =   0
                l(2) =   0
                l(3) =   1
                l(4) =   1
                l(5) =   2
                l(6) =   2

     point group D_3h (-62m)
     there are  6 classes
     the character table:

       E     2C3   3C2   s_h   2S3   3s_v 
A'_1   1.00  1.00  1.00  1.00  1.00  1.00
A'_2   1.00  1.00 -1.00  1.00  1.00 -1.00
E'     2.00 -1.00  0.00  2.00 -1.00  0.00
A''1   1.00  1.00  1.00 -1.00 -1.00 -1.00
A''2   1.00  1.00 -1.00 -1.00 -1.00  1.00
E''    2.00 -1.00  0.00 -2.00  1.00  0.00

     the symmetry operations in each class and the name of the first element:

     E        1
                                                                 
     2C3      3    4
                                                                 
     3C2      2    6    5
                                                                 
     s_h      7
                                                                 
     2S3      9   10
                                                                 
     3s_v     8   11   12
                                                                 


     Electric field:
     Dielectric constant
     Born effective charges as d Force / d E


     Atomic displacements:
     There are    6 irreducible representations

     Representation     1      1 modes -  Done
     Irreps are as follows:

                     mode #   1
                     (  -0.00000  -0.00000   ) 
                     (  -0.00000  -0.00000   ) 
                     (  -0.00000  -0.00000   ) 
                     (  -0.00000  -0.00000   ) 
                     (  -0.00000  -0.00000   ) 
                     (  -0.70711  -0.00000   ) 
                     (  -0.00000  -0.00000   ) 
                     (   0.00000  -0.00000   ) 
                     (   0.70711  -0.00000   ) 

     Representation     2      2 modes -  Done
     Irreps are as follows:

           mode #   2                           mode #   3
           (  -0.00000  -0.00000   )            (  -0.00000  -0.00000   ) 
           (  -0.00000  -0.00000   )            (  -0.00000  -0.00000   ) 
           (  -0.00000  -0.00000   )            (  -0.00000  -0.00000   ) 
           (  -0.00168  -0.00000   )            (  -0.70710  -0.00000   ) 
           (   0.70710  -0.00000   )            (  -0.00168  -0.00000   ) 
           (   0.00000  -0.00000   )            (  -0.00000  -0.00000   ) 
           (  -0.00168  -0.00000   )            (  -0.70710  -0.00000   ) 
           (   0.70710  -0.00000   )            (  -0.00168  -0.00000   ) 
           (   0.00000  -0.00000   )            (  -0.00000  -0.00000   ) 

     Representation     3      2 modes -  Done
     Irreps are as follows:

           mode #   4                           mode #   5
           (  -0.00022  -0.00000   )            (  -1.00000  -0.00000   ) 
           (   1.00000  -0.00000   )            (  -0.00022  -0.00000   ) 
           (  -0.00000  -0.00000   )            (  -0.00000   0.00000   ) 
           (  -0.00000  -0.00000   )            (  -0.00000   0.00000   ) 
           (  -0.00000  -0.00000   )            (  -0.00000   0.00000   ) 
           (  -0.00000  -0.00000   )            (  -0.00000   0.00000   ) 
           (  -0.00000  -0.00000   )            (  -0.00000   0.00000   ) 
           (  -0.00000  -0.00000   )            (  -0.00000   0.00000   ) 
           (  -0.00000  -0.00000   )            (  -0.00000   0.00000   ) 

     Representation     4      1 modes -  Done
     Irreps are as follows:

                     mode #   6
                     (  -0.00000  -0.00000   ) 
                     (  -0.00000  -0.00000   ) 
                     (  -1.00000  -0.00000   ) 
                     (  -0.00000  -0.00000   ) 
                     (  -0.00000  -0.00000   ) 
                     (  -0.00000  -0.00000   ) 
                     (  -0.00000  -0.00000   ) 
                     (  -0.00000  -0.00000   ) 
                     (  -0.00000  -0.00000   ) 

     Representation     5      1 modes -  To be done
     Irreps are as follows:

                     mode #   7
                     (  -0.00000  -0.00000   ) 
                     (  -0.00000  -0.00000   ) 
                     (  -0.00000  -0.00000   ) 
                     (   0.00000  -0.00000   ) 
                     (   0.00000  -0.00000   ) 
                     (  -0.70711  -0.00000   ) 
                     (  -0.00000  -0.00000   ) 
                     (   0.00000  -0.00000   ) 
                     (  -0.70711  -0.00000   ) 

     Representation     6      2 modes -  To be done
     Irreps are as follows:

           mode #   8                           mode #   9
           (  -0.00000  -0.00000   )            (  -0.00000   0.00000   ) 
           (  -0.00000  -0.00000   )            (  -0.00000   0.00000   ) 
           (  -0.00000  -0.00000   )            (  -0.00000   0.00000   ) 
           (  -0.70711  -0.00000   )            (  -0.00012  -0.00000   ) 
           (  -0.00012  -0.00000   )            (   0.70711   0.00000   ) 
           (   0.00000  -0.00000   )            (  -0.00000  -0.00000   ) 
           (   0.70711  -0.00000   )            (   0.00012   0.00000   ) 
           (   0.00012  -0.00000   )            (  -0.70711  -0.00000   ) 
           (  -0.00000  -0.00000   )            (   0.00000   0.00000   ) 


     PHONON       :      4.58s CPU      5.80s WALL


          Dielectric constant in cartesian axis 

          (       5.012574622      -0.000000000       0.000000000 )
          (      -0.000000000       5.012574622      -0.000000000 )
          (       0.000000000       0.000000000       1.317194488 )

          Effective charges (d Force / dE) in cartesian axis without acoustic sum rule applied (asr)

           atom    1  Mo    Mean Z*:       -0.79529
      Ex  (       -1.13684       -0.00000        0.00000 )
      Ey  (       -0.00000       -1.13684        0.00000 )
      Ez  (        0.00000        0.00000       -0.11221 )
           atom    2  S     Mean Z*:        0.38739
      Ex  (        0.55422        0.00000        0.00000 )
      Ey  (        0.00000        0.55422        0.00000 )
      Ez  (        0.00000       -0.00000        0.05375 )
           atom    3  S     Mean Z*:        0.38739
      Ex  (        0.55422        0.00000        0.00000 )
      Ey  (        0.00000        0.55422        0.00000 )
      Ez  (        0.00000       -0.00000        0.05375 )

          Effective charges Sum: Mean:       -0.02051
             -0.02840       -0.00000        0.00000
             -0.00000       -0.02840       -0.00000
              0.00000        0.00000       -0.00472

          Effective charges (d Force / dE) in cartesian axis with asr applied: 
           atom    1  Mo    Mean Z*:       -0.78846
      E*x (       -1.12737       -0.00000       -0.00000 )
      E*y (       -0.00000       -1.12737       -0.00000 )
      E*z (        0.00000        0.00000       -0.11063 )
           atom    2  S     Mean Z*:        0.39423
      E*x (        0.56369        0.00000        0.00000 )
      E*y (        0.00000        0.56369        0.00000 )
      E*z (        0.00000       -0.00000        0.05532 )
           atom    3  S     Mean Z*:        0.39423
      E*x (        0.56369        0.00000        0.00000 )
      E*y (        0.00000        0.56369        0.00000 )
      E*z (        0.00000       -0.00000        0.05532 )


     Representation #   5 mode #   7

     Self-consistent Calculation

      iter #   1 total cpu time :    12.2 secs   av.it.:   9.5
      thresh= 1.000E-02 alpha_mix =  0.100 |ddv_scf|^2 =  1.382E-05

      iter #   2 total cpu time :    27.7 secs   av.it.:  13.2
      thresh= 3.717E-04 alpha_mix =  0.100 |ddv_scf|^2 =  3.812E-07

      iter #   3 total cpu time :    35.6 secs   av.it.:  13.6
      thresh= 6.174E-05 alpha_mix =  0.100 |ddv_scf|^2 =  6.355E-08

      iter #   4 total cpu time :    44.6 secs   av.it.:  16.0
      thresh= 2.521E-05 alpha_mix =  0.100 |ddv_scf|^2 =  1.223E-09

      iter #   5 total cpu time :    51.6 secs   av.it.:  10.9
      thresh= 3.497E-06 alpha_mix =  0.100 |ddv_scf|^2 =  1.185E-09

      iter #   6 total cpu time :    60.7 secs   av.it.:  17.0
      thresh= 3.443E-06 alpha_mix =  0.100 |ddv_scf|^2 =  4.031E-11

      iter #   7 total cpu time :    70.1 secs   av.it.:  17.5
      thresh= 6.349E-07 alpha_mix =  0.100 |ddv_scf|^2 =  2.193E-11

      iter #   8 total cpu time :    79.3 secs   av.it.:  17.3
      thresh= 4.683E-07 alpha_mix =  0.100 |ddv_scf|^2 =  4.161E-13

     End of self-consistent calculation

     Convergence has been achieved 


     Representation #   6 modes #   8   9

     Self-consistent Calculation

      iter #   1 total cpu time :    90.4 secs   av.it.:   8.4
      thresh= 1.000E-02 alpha_mix =  0.100 |ddv_scf|^2 =  1.054E-09

      iter #   2 total cpu time :   107.1 secs   av.it.:  16.3
      thresh= 3.247E-06 alpha_mix =  0.100 |ddv_scf|^2 =  7.301E-10

      iter #   3 total cpu time :   125.6 secs   av.it.:  18.6
      thresh= 2.702E-06 alpha_mix =  0.100 |ddv_scf|^2 =  1.608E-11

      iter #   4 total cpu time :   142.5 secs   av.it.:  16.4
      thresh= 4.010E-07 alpha_mix =  0.100 |ddv_scf|^2 =  1.204E-11

      iter #   5 total cpu time :   161.3 secs   av.it.:  19.2
      thresh= 3.470E-07 alpha_mix =  0.100 |ddv_scf|^2 =  4.315E-14

     End of self-consistent calculation

     Convergence has been achieved 

     Number of q in the star =    1
     List of q in the star:
          1   0.000000000   0.000000000   0.000000000

          Dielectric constant in cartesian axis 

          (       5.012574622      -0.000000000       0.000000000 )
          (      -0.000000000       5.012574622      -0.000000000 )
          (       0.000000000       0.000000000       1.317194488 )

          Effective charges (d Force / dE) in cartesian axis without acoustic sum rule applied (asr)

           atom    1  Mo    Mean Z*:       -0.79529
      Ex  (       -1.13684       -0.00000        0.00000 )
      Ey  (       -0.00000       -1.13684        0.00000 )
      Ez  (        0.00000        0.00000       -0.11221 )
           atom    2  S     Mean Z*:        0.38739
      Ex  (        0.55422        0.00000        0.00000 )
      Ey  (        0.00000        0.55422        0.00000 )
      Ez  (        0.00000       -0.00000        0.05375 )
           atom    3  S     Mean Z*:        0.38739
      Ex  (        0.55422        0.00000        0.00000 )
      Ey  (        0.00000        0.55422        0.00000 )
      Ez  (        0.00000       -0.00000        0.05375 )

          Effective charges Sum: Mean:       -0.02051
             -0.02840       -0.00000        0.00000
             -0.00000       -0.02840       -0.00000
              0.00000        0.00000       -0.00472

          Effective charges (d Force / dE) in cartesian axis with asr applied: 
           atom    1  Mo    Mean Z*:       -0.78846
      E*x (       -1.12737       -0.00000       -0.00000 )
      E*y (       -0.00000       -1.12737       -0.00000 )
      E*z (        0.00000        0.00000       -0.11063 )
           atom    2  S     Mean Z*:        0.39423
      E*x (        0.56369        0.00000        0.00000 )
      E*y (        0.00000        0.56369        0.00000 )
      E*z (        0.00000       -0.00000        0.05532 )
           atom    3  S     Mean Z*:        0.39423
      E*x (        0.56369        0.00000        0.00000 )
      E*y (        0.00000        0.56369        0.00000 )
      E*z (        0.00000       -0.00000        0.05532 )

     Diagonalizing the dynamical matrix

     q = (   -0.000000000  -0.000000000  -0.000000000 ) 

 **************************************************************************
     freq (    1) =      -2.569327 [THz] =     -85.703523 [cm-1]
     freq (    2) =       2.437379 [THz] =      81.302212 [cm-1]
     freq (    3) =       2.437379 [THz] =      81.302212 [cm-1]
     freq (    4) =       8.477859 [THz] =     282.790946 [cm-1]
     freq (    5) =       8.477859 [THz] =     282.790946 [cm-1]
     freq (    6) =      10.784941 [THz] =     359.746913 [cm-1]
     freq (    7) =      10.784941 [THz] =     359.746913 [cm-1]
     freq (    8) =      11.956927 [THz] =     398.840152 [cm-1]
     freq (    9) =      14.097995 [THz] =     470.258510 [cm-1]
 **************************************************************************

     Mode symmetry, D_3h (-62m) point group:

     freq (   1-   1) =        -85.7  [cm-1]   --> A''2            I  
     freq (   2-   3) =         81.3  [cm-1]   --> E'              I+R
     freq (   4-   5) =        282.8  [cm-1]   --> E''             R  
     freq (   6-   7) =        359.7  [cm-1]   --> E'              I+R
     freq (   8-   8) =        398.8  [cm-1]   --> A'_1            R  
     freq (   9-   9) =        470.3  [cm-1]   --> A''2            I  

     Calculation of q =   -0.0000000  -0.1924501  -0.0000000

     Parallelization info
     --------------------
     sticks:   dense  smooth     PW     G-vecs:    dense   smooth      PW
     Min          30      15      4                 7300     2568     396
     Max          31      17      5                 7337     2593     429
     Sum        1945     967    283               468457   165261   26267

     Using Slab Decomposition


     Title: 
     default                                                                    


     bravais-lattice index     =            4
     lattice parameter (alat)  =       5.9477  a.u.
     unit-cell volume          =    1225.4506 (a.u.)^3
     number of atoms/cell      =            3
     number of atomic types    =            2
     number of electrons       =        26.00
     number of Kohn-Sham states=           13
     kinetic-energy cutoff     =     100.0000  Ry
     charge density cutoff     =     800.0000  Ry
     Exchange-correlation= PBESOL
                           (   1   4  10   8   0   0   0)

     celldm(1)=   5.947749  celldm(2)=   0.000000  celldm(3)=   6.725234
     celldm(4)=   0.000000  celldm(5)=   0.000000  celldm(6)=   0.000000

     crystal axes: (cart. coord. in units of alat)
               a(1) = (   1.000000   0.000000   0.000000 )  
               a(2) = (  -0.500000   0.866025   0.000000 )  
               a(3) = (   0.000000   0.000000   6.725234 )  

     reciprocal axes: (cart. coord. in units 2 pi/alat)
               b(1) = (  1.000000  0.577350 -0.000000 )  
               b(2) = (  0.000000  1.154701  0.000000 )  
               b(3) = (  0.000000 -0.000000  0.148694 )  


     PseudoPot. # 1 for Mo read from file:
     ../pseudo/Mo.pbesol.dojo.upf
     MD5 check sum: c40353276b9086539cda6b9e5a66907b
     Pseudo is Norm-conserving + core correction, Zval = 14.0
     Generated using ONCVPSP code by D. R. Hamann
     Using radial grid of 1640 points,  6 beta functions with: 
                l(1) =   0
                l(2) =   0
                l(3) =   1
                l(4) =   1
                l(5) =   2
                l(6) =   2

     PseudoPot. # 2 for S  read from file:
     ../pseudo/S.pbesol.dojo.upf
     MD5 check sum: 501737efeeef1fb1c631cda521d4e019
     Pseudo is Norm-conserving + core correction, Zval =  6.0
     Generated using ONCVPSP code by D. R. Hamann
     Using radial grid of 1146 points,  6 beta functions with: 
                l(1) =   0
                l(2) =   0
                l(3) =   1
                l(4) =   1
                l(5) =   2
                l(6) =   2

     atomic species   valence    mass     pseudopotential
     Mo               14.00    95.95000     Mo( 1.00)
     S                 6.00    32.06500     S ( 1.00)

     12 Sym. Ops. (no inversion) found


                                    s                        frac. trans.

      isym =  1     identity                                     

 cryst.   s( 1) = (     1          0          0      )
                  (     0          1          0      )
                  (     0          0          1      )

 cart.    s( 1) = (  1.0000000  0.0000000  0.0000000 )
                  (  0.0000000  1.0000000  0.0000000 )
                  (  0.0000000  0.0000000  1.0000000 )


      isym =  2     180 deg rotation - cart. axis [0,1,0]        

 cryst.   s( 2) = (    -1          0          0      )
                  (     1          1          0      )
                  (     0          0         -1      )

 cart.    s( 2) = ( -1.0000000  0.0000000  0.0000000 )
                  (  0.0000000  1.0000000  0.0000000 )
                  (  0.0000000  0.0000000 -1.0000000 )


      isym =  3     inv. 180 deg rotation - cart. axis [0,0,1]   

 cryst.   s( 3) = (     1          0          0      )
                  (     0          1          0      )
                  (     0          0         -1      )

 cart.    s( 3) = (  1.0000000  0.0000000  0.0000000 )
                  (  0.0000000  1.0000000  0.0000000 )
                  (  0.0000000  0.0000000 -1.0000000 )


      isym =  4     inv. 180 deg rotation - cart. axis [1,0,0]   

 cryst.   s( 4) = (    -1          0          0      )
                  (     1          1          0      )
                  (     0          0          1      )

 cart.    s( 4) = ( -1.0000000  0.0000000  0.0000000 )
                  (  0.0000000  1.0000000  0.0000000 )
                  (  0.0000000  0.0000000  1.0000000 )


      isym =  5     180 deg rotation - cryst. axis [1,-1,0]      

 cryst.   s( 5) = (     0         -1          0      )
                  (    -1          0          0      )
                  (     0          0         -1      )

 cart.    s( 5) = (  0.5000000 -0.8660254  0.0000000 )
                  ( -0.8660254 -0.5000000  0.0000000 )
                  (  0.0000000  0.0000000 -1.0000000 )


      isym =  6     180 deg rotation - cryst. axis [2,1,0]       

 cryst.   s( 6) = (     1          1          0      )
                  (     0         -1          0      )
                  (     0          0         -1      )

 cart.    s( 6) = (  0.5000000  0.8660254  0.0000000 )
                  (  0.8660254 -0.5000000  0.0000000 )
                  (  0.0000000  0.0000000 -1.0000000 )


      isym =  7     120 deg rotation - cryst. axis [0,0,1]       

 cryst.   s( 7) = (     0          1          0      )
                  (    -1         -1          0      )
                  (     0          0          1      )

 cart.    s( 7) = ( -0.5000000 -0.8660254  0.0000000 )
                  (  0.8660254 -0.5000000  0.0000000 )
                  (  0.0000000  0.0000000  1.0000000 )


      isym =  8     120 deg rotation - cryst. axis [0,0,-1]      

 cryst.   s( 8) = (    -1         -1          0      )
                  (     1          0          0      )
                  (     0          0          1      )

 cart.    s( 8) = ( -0.5000000  0.8660254  0.0000000 )
                  ( -0.8660254 -0.5000000  0.0000000 )
                  (  0.0000000  0.0000000  1.0000000 )


      isym =  9     inv.  60 deg rotation - cryst. axis [0,0,1]  

 cryst.   s( 9) = (    -1         -1          0      )
                  (     1          0          0      )
                  (     0          0         -1      )

 cart.    s( 9) = ( -0.5000000  0.8660254  0.0000000 )
                  ( -0.8660254 -0.5000000  0.0000000 )
                  (  0.0000000  0.0000000 -1.0000000 )


      isym = 10     inv.  60 deg rotation - cryst. axis [0,0,-1] 

 cryst.   s(10) = (     0          1          0      )
                  (    -1         -1          0      )
                  (     0          0         -1      )

 cart.    s(10) = ( -0.5000000 -0.8660254  0.0000000 )
                  (  0.8660254 -0.5000000  0.0000000 )
                  (  0.0000000  0.0000000 -1.0000000 )


      isym = 11     inv. 180 deg rotation - cryst. axis [0,1,0]  

 cryst.   s(11) = (     1          1          0      )
                  (     0         -1          0      )
                  (     0          0          1      )

 cart.    s(11) = (  0.5000000  0.8660254  0.0000000 )
                  (  0.8660254 -0.5000000  0.0000000 )
                  (  0.0000000  0.0000000  1.0000000 )


      isym = 12     inv. 180 deg rotation - cryst. axis [1,1,0]  

 cryst.   s(12) = (     0         -1          0      )
                  (    -1          0          0      )
                  (     0          0          1      )

 cart.    s(12) = (  0.5000000 -0.8660254  0.0000000 )
                  ( -0.8660254 -0.5000000  0.0000000 )
                  (  0.0000000  0.0000000  1.0000000 )


     point group D_3h (-62m)
     there are  6 classes
     the character table:

       E     2C3   3C2   s_h   2S3   3s_v 
A'_1   1.00  1.00  1.00  1.00  1.00  1.00
A'_2   1.00  1.00 -1.00  1.00  1.00 -1.00
E'     2.00 -1.00  0.00  2.00 -1.00  0.00
A''1   1.00  1.00  1.00 -1.00 -1.00 -1.00
A''2   1.00  1.00 -1.00 -1.00 -1.00  1.00
E''    2.00 -1.00  0.00 -2.00  1.00  0.00

     the symmetry operations in each class and the name of the first element:

     E        1
          identity                                               
     2C3      7    8
          120 deg rotation - cryst. axis [0,0,1]                 
     3C2      2    6    5
          180 deg rotation - cart. axis [0,1,0]                  
     s_h      3
          inv. 180 deg rotation - cart. axis [0,0,1]             
     2S3      9   10
          inv.  60 deg rotation - cryst. axis [0,0,1]            
     3s_v     4   11   12
          inv. 180 deg rotation - cart. axis [1,0,0]             

   Cartesian axes

     site n.     atom                  positions (alat units)
         1        Mo     tau(   1) = (  -0.0000000   0.5773503   0.0000000  )
         2        S      tau(   2) = (   0.5000000   0.2886751   0.4945008  )
         3        S      tau(   3) = (   0.5000000   0.2886751  -0.4945008  )

   Crystallographic axes

     site n.     atom                  positions (cryst. coord.)
         1        Mo     tau(   1) = (  0.3333333  0.6666667  0.0000000  )
         2        S      tau(   2) = (  0.6666667  0.3333333  0.0735292  )
         3        S      tau(   3) = (  0.6666667  0.3333333 -0.0735292  )

     number of k points=   342
                       cart. coord. in units 2pi/alat
        k(    1) = (   0.0000000   0.0000000   0.0000000), wk =   0.0061728
        k(    2) = (  -0.0000000  -0.1924501   0.0000000), wk =   0.0000000
        k(    3) = (   0.0000000   0.0641500   0.0000000), wk =   0.0061728
        k(    4) = (  -0.0000000  -0.1283001   0.0000000), wk =   0.0000000
        k(    5) = (   0.0000000   0.1283001   0.0000000), wk =   0.0061728
        k(    6) = (  -0.0000000  -0.0641500   0.0000000), wk =   0.0000000
        k(    7) = (   0.0000000   0.1924501   0.0000000), wk =   0.0061728
        k(    8) = (  -0.0000000  -0.0000000   0.0000000), wk =   0.0000000
        k(    9) = (   0.0000000   0.2566001   0.0000000), wk =   0.0061728
        k(   10) = (  -0.0000000   0.0641500   0.0000000), wk =   0.0000000
        k(   11) = (   0.0000000   0.3207501   0.0000000), wk =   0.0061728
        k(   12) = (  -0.0000000   0.1283000   0.0000000), wk =   0.0000000
        k(   13) = (   0.0000000   0.3849002   0.0000000), wk =   0.0061728
        k(   14) = (  -0.0000000   0.1924501   0.0000000), wk =   0.0000000
        k(   15) = (   0.0000000   0.4490502   0.0000000), wk =   0.0061728
        k(   16) = (  -0.0000000   0.2566001   0.0000000), wk =   0.0000000
        k(   17) = (   0.0000000   0.5132002   0.0000000), wk =   0.0061728
        k(   18) = (  -0.0000000   0.3207501   0.0000000), wk =   0.0000000
        k(   19) = (   0.0000000  -0.5773503   0.0000000), wk =   0.0061728
        k(   20) = (  -0.0000000  -0.7698004   0.0000000), wk =   0.0000000
        k(   21) = (   0.0555556   0.0962250   0.0000000), wk =   0.0123457
        k(   22) = (   0.0555556  -0.0962251   0.0000000), wk =   0.0000000
        k(   23) = (   0.0555556   0.1603751   0.0000000), wk =   0.0123457
        k(   24) = (   0.0555556  -0.0320750   0.0000000), wk =   0.0000000
        k(   25) = (   0.0555556   0.2245251   0.0000000), wk =   0.0123457
        k(   26) = (   0.0555556   0.0320750   0.0000000), wk =   0.0000000
        k(   27) = (   0.0555556   0.2886751   0.0000000), wk =   0.0123457
        k(   28) = (   0.0555556   0.0962250   0.0000000), wk =   0.0000000
        k(   29) = (   0.0555556   0.3528252   0.0000000), wk =   0.0123457
        k(   30) = (   0.0555556   0.1603751   0.0000000), wk =   0.0000000
        k(   31) = (   0.0555556   0.4169752   0.0000000), wk =   0.0123457
        k(   32) = (   0.0555556   0.2245251   0.0000000), wk =   0.0000000
        k(   33) = (   0.0555556   0.4811252   0.0000000), wk =   0.0123457
        k(   34) = (   0.0555556   0.2886751   0.0000000), wk =   0.0000000
        k(   35) = (   0.0555556   0.5452753   0.0000000), wk =   0.0123457
        k(   36) = (   0.0555556   0.3528251   0.0000000), wk =   0.0000000
        k(   37) = (   0.1111111   0.1924501   0.0000000), wk =   0.0123457
        k(   38) = (   0.1111111  -0.0000000   0.0000000), wk =   0.0000000
        k(   39) = (   0.1111111   0.2566001   0.0000000), wk =   0.0123457
        k(   40) = (   0.1111111   0.0641500   0.0000000), wk =   0.0000000
        k(   41) = (   0.1111111   0.3207501   0.0000000), wk =   0.0123457
        k(   42) = (   0.1111111   0.1283000   0.0000000), wk =   0.0000000
        k(   43) = (   0.1111111   0.3849002   0.0000000), wk =   0.0123457
        k(   44) = (   0.1111111   0.1924501   0.0000000), wk =   0.0000000
        k(   45) = (   0.1111111   0.4490502   0.0000000), wk =   0.0123457
        k(   46) = (   0.1111111   0.2566001   0.0000000), wk =   0.0000000
        k(   47) = (   0.1111111   0.5132002   0.0000000), wk =   0.0123457
        k(   48) = (   0.1111111   0.3207501   0.0000000), wk =   0.0000000
        k(   49) = (   0.1111111   0.5773503   0.0000000), wk =   0.0123457
        k(   50) = (   0.1111111   0.3849002   0.0000000), wk =   0.0000000
        k(   51) = (   0.1666667   0.2886751   0.0000000), wk =   0.0123457
        k(   52) = (   0.1666667   0.0962250   0.0000000), wk =   0.0000000
        k(   53) = (   0.1666667   0.3528252   0.0000000), wk =   0.0123457
        k(   54) = (   0.1666667   0.1603751   0.0000000), wk =   0.0000000
        k(   55) = (   0.1666667   0.4169752   0.0000000), wk =   0.0123457
        k(   56) = (   0.1666667   0.2245251   0.0000000), wk =   0.0000000
        k(   57) = (   0.1666667   0.4811252   0.0000000), wk =   0.0123457
        k(   58) = (   0.1666667   0.2886751   0.0000000), wk =   0.0000000
        k(   59) = (   0.1666667   0.5452753   0.0000000), wk =   0.0123457
        k(   60) = (   0.1666667   0.3528251   0.0000000), wk =   0.0000000
        k(   61) = (   0.2222222   0.3849002   0.0000000), wk =   0.0123457
        k(   62) = (   0.2222222   0.1924501   0.0000000), wk =   0.0000000
        k(   63) = (   0.2222222   0.4490502   0.0000000), wk =   0.0123457
        k(   64) = (   0.2222222   0.2566001   0.0000000), wk =   0.0000000
        k(   65) = (   0.2222222   0.5132002   0.0000000), wk =   0.0123457
        k(   66) = (   0.2222222   0.3207501   0.0000000), wk =   0.0000000
        k(   67) = (   0.2222222   0.5773503   0.0000000), wk =   0.0123457
        k(   68) = (   0.2222222   0.3849002   0.0000000), wk =   0.0000000
        k(   69) = (   0.2777778   0.4811252   0.0000000), wk =   0.0123457
        k(   70) = (   0.2777778   0.2886751   0.0000000), wk =   0.0000000
        k(   71) = (   0.2777778   0.5452753   0.0000000), wk =   0.0123457
        k(   72) = (   0.2777778   0.3528251   0.0000000), wk =   0.0000000
        k(   73) = (   0.3333333   0.5773503   0.0000000), wk =   0.0123457
        k(   74) = (   0.3333333   0.3849002   0.0000000), wk =   0.0000000
        k(   75) = (  -0.0555556  -0.0320750   0.0000000), wk =   0.0123457
        k(   76) = (  -0.0555556  -0.2245251   0.0000000), wk =   0.0000000
        k(   77) = (   0.0000000  -0.0641500   0.0000000), wk =   0.0061728
        k(   78) = (  -0.0000000  -0.2566001   0.0000000), wk =   0.0000000
        k(   79) = (  -0.0555556   0.0320750   0.0000000), wk =   0.0123457
        k(   80) = (  -0.0555556  -0.1603751   0.0000000), wk =   0.0000000
        k(   81) = (  -0.1111111  -0.0641500   0.0000000), wk =   0.0123457
        k(   82) = (  -0.1111111  -0.2566001   0.0000000), wk =   0.0000000
        k(   83) = (   0.0000000  -0.1283001   0.0000000), wk =   0.0061728
        k(   84) = (  -0.0000000  -0.3207502   0.0000000), wk =   0.0000000
        k(   85) = (  -0.1111111   0.0641500   0.0000000), wk =   0.0123457
        k(   86) = (  -0.1111111  -0.1283001   0.0000000), wk =   0.0000000
        k(   87) = (  -0.1666667  -0.0962250   0.0000000), wk =   0.0123457
        k(   88) = (  -0.1666667  -0.2886752   0.0000000), wk =   0.0000000
        k(   89) = (   0.0000000  -0.1924501   0.0000000), wk =   0.0061728
        k(   90) = (  -0.0000000  -0.3849002   0.0000000), wk =   0.0000000
        k(   91) = (  -0.1666667   0.0962250   0.0000000), wk =   0.0123457
        k(   92) = (  -0.1666667  -0.0962251   0.0000000), wk =   0.0000000
        k(   93) = (  -0.2222222  -0.1283001   0.0000000), wk =   0.0123457
        k(   94) = (  -0.2222222  -0.3207502   0.0000000), wk =   0.0000000
        k(   95) = (   0.0000000  -0.2566001   0.0000000), wk =   0.0061728
        k(   96) = (  -0.0000000  -0.4490502   0.0000000), wk =   0.0000000
        k(   97) = (  -0.2222222   0.1283001   0.0000000), wk =   0.0123457
        k(   98) = (  -0.2222222  -0.0641500   0.0000000), wk =   0.0000000
        k(   99) = (  -0.2777778  -0.1603751   0.0000000), wk =   0.0123457
        k(  100) = (  -0.2777778  -0.3528252   0.0000000), wk =   0.0000000
        k(  101) = (   0.0000000  -0.3207501   0.0000000), wk =   0.0061728
        k(  102) = (  -0.0000000  -0.5132003   0.0000000), wk =   0.0000000
        k(  103) = (  -0.2777778   0.1603751   0.0000000), wk =   0.0123457
        k(  104) = (  -0.2777778  -0.0320750   0.0000000), wk =   0.0000000
        k(  105) = (  -0.3333333  -0.1924501   0.0000000), wk =   0.0123457
        k(  106) = (  -0.3333333  -0.3849002   0.0000000), wk =   0.0000000
        k(  107) = (   0.0000000  -0.3849002   0.0000000), wk =   0.0061728
        k(  108) = (  -0.0000000  -0.5773503   0.0000000), wk =   0.0000000
        k(  109) = (  -0.3333333   0.1924501   0.0000000), wk =   0.0123457
        k(  110) = (  -0.3333333  -0.0000000   0.0000000), wk =   0.0000000
        k(  111) = (  -0.3888889  -0.2245251   0.0000000), wk =   0.0123457
        k(  112) = (  -0.3888889  -0.4169752   0.0000000), wk =   0.0000000
        k(  113) = (   0.0000000  -0.4490502   0.0000000), wk =   0.0061728
        k(  114) = (  -0.0000000  -0.6415003   0.0000000), wk =   0.0000000
        k(  115) = (  -0.3888889   0.2245251   0.0000000), wk =   0.0123457
        k(  116) = (  -0.3888889   0.0320750   0.0000000), wk =   0.0000000
        k(  117) = (  -0.4444444  -0.2566001   0.0000000), wk =   0.0123457
        k(  118) = (  -0.4444444  -0.4490502   0.0000000), wk =   0.0000000
        k(  119) = (   0.0000000  -0.5132002   0.0000000), wk =   0.0061728
        k(  120) = (  -0.0000000  -0.7056503   0.0000000), wk =   0.0000000
        k(  121) = (  -0.4444444   0.2566001   0.0000000), wk =   0.0123457
        k(  122) = (  -0.4444444   0.0641500   0.0000000), wk =   0.0000000
        k(  123) = (   0.5000000   0.2886751   0.0000000), wk =   0.0123457
        k(  124) = (   0.5000000   0.0962250   0.0000000), wk =   0.0000000
        k(  125) = (  -0.0555556  -0.0962250   0.0000000), wk =   0.0123457
        k(  126) = (  -0.0555556  -0.2886752   0.0000000), wk =   0.0000000
        k(  127) = (   0.1111111  -0.0000000   0.0000000), wk =   0.0123457
        k(  128) = (   0.1111111  -0.1924501   0.0000000), wk =   0.0000000
        k(  129) = (  -0.1111111  -0.1283001   0.0000000), wk =   0.0123457
        k(  130) = (  -0.1111111  -0.3207502   0.0000000), wk =   0.0000000
        k(  131) = (   0.1666667  -0.0320750   0.0000000), wk =   0.0123457
        k(  132) = (   0.1666667  -0.2245251   0.0000000), wk =   0.0000000
        k(  133) = (  -0.0555556  -0.1603751   0.0000000), wk =   0.0123457
        k(  134) = (  -0.0555556  -0.3528252   0.0000000), wk =   0.0000000
        k(  135) = (  -0.1111111   0.1283001   0.0000000), wk =   0.0123457
        k(  136) = (  -0.1111111  -0.0641500   0.0000000), wk =   0.0000000
        k(  137) = (   0.1666667   0.0320750   0.0000000), wk =   0.0123457
        k(  138) = (   0.1666667  -0.1603751   0.0000000), wk =   0.0000000
        k(  139) = (  -0.1666667  -0.1603751   0.0000000), wk =   0.0123457
        k(  140) = (  -0.1666667  -0.3528252   0.0000000), wk =   0.0000000
        k(  141) = (   0.2222222  -0.0641500   0.0000000), wk =   0.0123457
        k(  142) = (   0.2222222  -0.2566001   0.0000000), wk =   0.0000000
        k(  143) = (  -0.0555556  -0.2245251   0.0000000), wk =   0.0123457
        k(  144) = (  -0.0555556  -0.4169752   0.0000000), wk =   0.0000000
        k(  145) = (  -0.1666667   0.1603751   0.0000000), wk =   0.0123457
        k(  146) = (  -0.1666667  -0.0320750   0.0000000), wk =   0.0000000
        k(  147) = (   0.2222222   0.0641500   0.0000000), wk =   0.0123457
        k(  148) = (   0.2222222  -0.1283001   0.0000000), wk =   0.0000000
        k(  149) = (  -0.2222222  -0.1924501   0.0000000), wk =   0.0123457
        k(  150) = (  -0.2222222  -0.3849002   0.0000000), wk =   0.0000000
        k(  151) = (   0.2777778  -0.0962250   0.0000000), wk =   0.0123457
        k(  152) = (   0.2777778  -0.2886752   0.0000000), wk =   0.0000000
        k(  153) = (  -0.0555556  -0.2886751   0.0000000), wk =   0.0123457
        k(  154) = (  -0.0555556  -0.4811252   0.0000000), wk =   0.0000000
        k(  155) = (  -0.2222222   0.1924501   0.0000000), wk =   0.0123457
        k(  156) = (  -0.2222222  -0.0000000   0.0000000), wk =   0.0000000
        k(  157) = (   0.2777778   0.0962250   0.0000000), wk =   0.0123457
        k(  158) = (   0.2777778  -0.0962251   0.0000000), wk =   0.0000000
        k(  159) = (  -0.2777778  -0.2245251   0.0000000), wk =   0.0123457
        k(  160) = (  -0.2777778  -0.4169752   0.0000000), wk =   0.0000000
        k(  161) = (   0.3333333  -0.1283001   0.0000000), wk =   0.0123457
        k(  162) = (   0.3333333  -0.3207502   0.0000000), wk =   0.0000000
        k(  163) = (  -0.0555556  -0.3528252   0.0000000), wk =   0.0123457
        k(  164) = (  -0.0555556  -0.5452753   0.0000000), wk =   0.0000000
        k(  165) = (  -0.2777778   0.2245251   0.0000000), wk =   0.0123457
        k(  166) = (  -0.2777778   0.0320750   0.0000000), wk =   0.0000000
        k(  167) = (   0.3333333   0.1283001   0.0000000), wk =   0.0123457
        k(  168) = (   0.3333333  -0.0641500   0.0000000), wk =   0.0000000
        k(  169) = (  -0.3333333  -0.2566001   0.0000000), wk =   0.0123457
        k(  170) = (  -0.3333333  -0.4490502   0.0000000), wk =   0.0000000
        k(  171) = (   0.3888889  -0.1603751   0.0000000), wk =   0.0123457
        k(  172) = (   0.3888889  -0.3528252   0.0000000), wk =   0.0000000
        k(  173) = (  -0.0555556  -0.4169752   0.0000000), wk =   0.0123457
        k(  174) = (  -0.0555556  -0.6094253   0.0000000), wk =   0.0000000
        k(  175) = (  -0.3333333   0.2566001   0.0000000), wk =   0.0123457
        k(  176) = (  -0.3333333   0.0641500   0.0000000), wk =   0.0000000
        k(  177) = (   0.3888889   0.1603751   0.0000000), wk =   0.0123457
        k(  178) = (   0.3888889  -0.0320750   0.0000000), wk =   0.0000000
        k(  179) = (  -0.3888889  -0.2886751   0.0000000), wk =   0.0123457
        k(  180) = (  -0.3888889  -0.4811252   0.0000000), wk =   0.0000000
        k(  181) = (   0.4444444  -0.1924501   0.0000000), wk =   0.0123457
        k(  182) = (   0.4444444  -0.3849002   0.0000000), wk =   0.0000000
        k(  183) = (  -0.0555556  -0.4811252   0.0000000), wk =   0.0123457
        k(  184) = (  -0.0555556  -0.6735753   0.0000000), wk =   0.0000000
        k(  185) = (  -0.3888889   0.2886751   0.0000000), wk =   0.0123457
        k(  186) = (  -0.3888889   0.0962250   0.0000000), wk =   0.0000000
        k(  187) = (   0.4444444   0.1924501   0.0000000), wk =   0.0123457
        k(  188) = (   0.4444444  -0.0000000   0.0000000), wk =   0.0000000
        k(  189) = (  -0.4444444  -0.3207501   0.0000000), wk =   0.0123457
        k(  190) = (  -0.4444444  -0.5132003   0.0000000), wk =   0.0000000
        k(  191) = (   0.5000000  -0.2245251   0.0000000), wk =   0.0123457
        k(  192) = (   0.5000000  -0.4169752   0.0000000), wk =   0.0000000
        k(  193) = (  -0.0555556  -0.5452753   0.0000000), wk =   0.0123457
        k(  194) = (  -0.0555556  -0.7377254   0.0000000), wk =   0.0000000
        k(  195) = (  -0.4444444   0.3207501   0.0000000), wk =   0.0123457
        k(  196) = (  -0.4444444   0.1283000   0.0000000), wk =   0.0000000
        k(  197) = (   0.5000000   0.2245251   0.0000000), wk =   0.0123457
        k(  198) = (   0.5000000   0.0320750   0.0000000), wk =   0.0000000
        k(  199) = (  -0.1111111  -0.1924501   0.0000000), wk =   0.0123457
        k(  200) = (  -0.1111111  -0.3849002   0.0000000), wk =   0.0000000
        k(  201) = (   0.2222222  -0.0000000   0.0000000), wk =   0.0123457
        k(  202) = (   0.2222222  -0.1924501   0.0000000), wk =   0.0000000
        k(  203) = (  -0.1666667  -0.2245251   0.0000000), wk =   0.0123457
        k(  204) = (  -0.1666667  -0.4169752   0.0000000), wk =   0.0000000
        k(  205) = (   0.2777778  -0.0320750   0.0000000), wk =   0.0123457
        k(  206) = (   0.2777778  -0.2245251   0.0000000), wk =   0.0000000
        k(  207) = (  -0.1111111  -0.2566001   0.0000000), wk =   0.0123457
        k(  208) = (  -0.1111111  -0.4490502   0.0000000), wk =   0.0000000
        k(  209) = (  -0.1666667   0.2245251   0.0000000), wk =   0.0123457
        k(  210) = (  -0.1666667   0.0320750   0.0000000), wk =   0.0000000
        k(  211) = (   0.2777778   0.0320750   0.0000000), wk =   0.0123457
        k(  212) = (   0.2777778  -0.1603751   0.0000000), wk =   0.0000000
        k(  213) = (  -0.2222222  -0.2566001   0.0000000), wk =   0.0123457
        k(  214) = (  -0.2222222  -0.4490502   0.0000000), wk =   0.0000000
        k(  215) = (   0.3333333  -0.0641500   0.0000000), wk =   0.0123457
        k(  216) = (   0.3333333  -0.2566001   0.0000000), wk =   0.0000000
        k(  217) = (  -0.1111111  -0.3207501   0.0000000), wk =   0.0123457
        k(  218) = (  -0.1111111  -0.5132003   0.0000000), wk =   0.0000000
        k(  219) = (  -0.2222222   0.2566001   0.0000000), wk =   0.0123457
        k(  220) = (  -0.2222222   0.0641500   0.0000000), wk =   0.0000000
        k(  221) = (   0.3333333   0.0641500   0.0000000), wk =   0.0123457
        k(  222) = (   0.3333333  -0.1283001   0.0000000), wk =   0.0000000
        k(  223) = (  -0.2777778  -0.2886751   0.0000000), wk =   0.0123457
        k(  224) = (  -0.2777778  -0.4811252   0.0000000), wk =   0.0000000
        k(  225) = (   0.3888889  -0.0962250   0.0000000), wk =   0.0123457
        k(  226) = (   0.3888889  -0.2886752   0.0000000), wk =   0.0000000
        k(  227) = (  -0.1111111  -0.3849002   0.0000000), wk =   0.0123457
        k(  228) = (  -0.1111111  -0.5773503   0.0000000), wk =   0.0000000
        k(  229) = (  -0.2777778   0.2886751   0.0000000), wk =   0.0123457
        k(  230) = (  -0.2777778   0.0962250   0.0000000), wk =   0.0000000
        k(  231) = (   0.3888889   0.0962250   0.0000000), wk =   0.0123457
        k(  232) = (   0.3888889  -0.0962251   0.0000000), wk =   0.0000000
        k(  233) = (  -0.3333333  -0.3207501   0.0000000), wk =   0.0123457
        k(  234) = (  -0.3333333  -0.5132003   0.0000000), wk =   0.0000000
        k(  235) = (   0.4444444  -0.1283001   0.0000000), wk =   0.0123457
        k(  236) = (   0.4444444  -0.3207502   0.0000000), wk =   0.0000000
        k(  237) = (  -0.1111111  -0.4490502   0.0000000), wk =   0.0123457
        k(  238) = (  -0.1111111  -0.6415003   0.0000000), wk =   0.0000000
        k(  239) = (  -0.3333333   0.3207501   0.0000000), wk =   0.0123457
        k(  240) = (  -0.3333333   0.1283000   0.0000000), wk =   0.0000000
        k(  241) = (   0.4444444   0.1283001   0.0000000), wk =   0.0123457
        k(  242) = (   0.4444444  -0.0641500   0.0000000), wk =   0.0000000
        k(  243) = (  -0.3888889  -0.3528252   0.0000000), wk =   0.0123457
        k(  244) = (  -0.3888889  -0.5452753   0.0000000), wk =   0.0000000
        k(  245) = (   0.5000000  -0.1603751   0.0000000), wk =   0.0123457
        k(  246) = (   0.5000000  -0.3528252   0.0000000), wk =   0.0000000
        k(  247) = (  -0.1111111  -0.5132002   0.0000000), wk =   0.0123457
        k(  248) = (  -0.1111111  -0.7056503   0.0000000), wk =   0.0000000
        k(  249) = (  -0.3888889   0.3528252   0.0000000), wk =   0.0123457
        k(  250) = (  -0.3888889   0.1603751   0.0000000), wk =   0.0000000
        k(  251) = (   0.5000000   0.1603751   0.0000000), wk =   0.0123457
        k(  252) = (   0.5000000  -0.0320750   0.0000000), wk =   0.0000000
        k(  253) = (  -0.4444444  -0.3849002   0.0000000), wk =   0.0123457
        k(  254) = (  -0.4444444  -0.5773503   0.0000000), wk =   0.0000000
        k(  255) = (   0.5555556  -0.1924501   0.0000000), wk =   0.0123457
        k(  256) = (   0.5555556  -0.3849002   0.0000000), wk =   0.0000000
        k(  257) = (  -0.1666667  -0.2886751   0.0000000), wk =   0.0123457
        k(  258) = (  -0.1666667  -0.4811252   0.0000000), wk =   0.0000000
        k(  259) = (   0.3333333   0.0000000   0.0000000), wk =   0.0123457
        k(  260) = (   0.3333333  -0.1924501   0.0000000), wk =   0.0000000
        k(  261) = (  -0.2222222  -0.3207501   0.0000000), wk =   0.0123457
        k(  262) = (  -0.2222222  -0.5132003   0.0000000), wk =   0.0000000
        k(  263) = (   0.3888889  -0.0320750   0.0000000), wk =   0.0123457
        k(  264) = (   0.3888889  -0.2245251   0.0000000), wk =   0.0000000
        k(  265) = (  -0.1666667  -0.3528252   0.0000000), wk =   0.0123457
        k(  266) = (  -0.1666667  -0.5452753   0.0000000), wk =   0.0000000
        k(  267) = (  -0.2222222   0.3207501   0.0000000), wk =   0.0123457
        k(  268) = (  -0.2222222   0.1283000   0.0000000), wk =   0.0000000
        k(  269) = (   0.3888889   0.0320750   0.0000000), wk =   0.0123457
        k(  270) = (   0.3888889  -0.1603751   0.0000000), wk =   0.0000000
        k(  271) = (  -0.2777778  -0.3528252   0.0000000), wk =   0.0123457
        k(  272) = (  -0.2777778  -0.5452753   0.0000000), wk =   0.0000000
        k(  273) = (   0.4444444  -0.0641500   0.0000000), wk =   0.0123457
        k(  274) = (   0.4444444  -0.2566001   0.0000000), wk =   0.0000000
        k(  275) = (  -0.1666667  -0.4169752   0.0000000), wk =   0.0123457
        k(  276) = (  -0.1666667  -0.6094253   0.0000000), wk =   0.0000000
        k(  277) = (  -0.2777778   0.3528252   0.0000000), wk =   0.0123457
        k(  278) = (  -0.2777778   0.1603751   0.0000000), wk =   0.0000000
        k(  279) = (   0.4444444   0.0641500   0.0000000), wk =   0.0123457
        k(  280) = (   0.4444444  -0.1283001   0.0000000), wk =   0.0000000
        k(  281) = (  -0.3333333  -0.3849002   0.0000000), wk =   0.0123457
        k(  282) = (  -0.3333333  -0.5773503   0.0000000), wk =   0.0000000
        k(  283) = (   0.5000000  -0.0962250   0.0000000), wk =   0.0123457
        k(  284) = (   0.5000000  -0.2886752   0.0000000), wk =   0.0000000
        k(  285) = (  -0.1666667  -0.4811252   0.0000000), wk =   0.0123457
        k(  286) = (  -0.1666667  -0.6735753   0.0000000), wk =   0.0000000
        k(  287) = (  -0.3333333   0.3849002   0.0000000), wk =   0.0123457
        k(  288) = (  -0.3333333   0.1924501   0.0000000), wk =   0.0000000
        k(  289) = (   0.5000000   0.0962250   0.0000000), wk =   0.0123457
        k(  290) = (   0.5000000  -0.0962251   0.0000000), wk =   0.0000000
        k(  291) = (  -0.3888889  -0.4169752   0.0000000), wk =   0.0123457
        k(  292) = (  -0.3888889  -0.6094253   0.0000000), wk =   0.0000000
        k(  293) = (   0.5555556  -0.1283001   0.0000000), wk =   0.0123457
        k(  294) = (   0.5555556  -0.3207502   0.0000000), wk =   0.0000000
        k(  295) = (  -0.1666667  -0.5452753   0.0000000), wk =   0.0123457
        k(  296) = (  -0.1666667  -0.7377254   0.0000000), wk =   0.0000000
        k(  297) = (  -0.3888889   0.4169752   0.0000000), wk =   0.0123457
        k(  298) = (  -0.3888889   0.2245251   0.0000000), wk =   0.0000000
        k(  299) = (   0.5555556   0.1283001   0.0000000), wk =   0.0123457
        k(  300) = (   0.5555556  -0.0641500   0.0000000), wk =   0.0000000
        k(  301) = (  -0.2222222  -0.3849002   0.0000000), wk =   0.0123457
        k(  302) = (  -0.2222222  -0.5773503   0.0000000), wk =   0.0000000
        k(  303) = (   0.4444444  -0.0000000   0.0000000), wk =   0.0123457
        k(  304) = (   0.4444444  -0.1924501   0.0000000), wk =   0.0000000
        k(  305) = (  -0.2777778  -0.4169752   0.0000000), wk =   0.0123457
        k(  306) = (  -0.2777778  -0.6094253   0.0000000), wk =   0.0000000
        k(  307) = (   0.5000000  -0.0320750   0.0000000), wk =   0.0123457
        k(  308) = (   0.5000000  -0.2245251   0.0000000), wk =   0.0000000
        k(  309) = (  -0.2222222  -0.4490502   0.0000000), wk =   0.0123457
        k(  310) = (  -0.2222222  -0.6415003   0.0000000), wk =   0.0000000
        k(  311) = (  -0.2777778   0.4169752   0.0000000), wk =   0.0123457
        k(  312) = (  -0.2777778   0.2245251   0.0000000), wk =   0.0000000
        k(  313) = (   0.5000000   0.0320750   0.0000000), wk =   0.0123457
        k(  314) = (   0.5000000  -0.1603751   0.0000000), wk =   0.0000000
        k(  315) = (  -0.3333333  -0.4490502   0.0000000), wk =   0.0123457
        k(  316) = (  -0.3333333  -0.6415003   0.0000000), wk =   0.0000000
        k(  317) = (   0.5555556  -0.0641500   0.0000000), wk =   0.0123457
        k(  318) = (   0.5555556  -0.2566001   0.0000000), wk =   0.0000000
        k(  319) = (  -0.2222222  -0.5132002   0.0000000), wk =   0.0123457
        k(  320) = (  -0.2222222  -0.7056503   0.0000000), wk =   0.0000000
        k(  321) = (  -0.3333333   0.4490502   0.0000000), wk =   0.0123457
        k(  322) = (  -0.3333333   0.2566001   0.0000000), wk =   0.0000000
        k(  323) = (   0.5555556   0.0641500   0.0000000), wk =   0.0123457
        k(  324) = (   0.5555556  -0.1283001   0.0000000), wk =   0.0000000
        k(  325) = (  -0.3888889  -0.4811252   0.0000000), wk =   0.0123457
        k(  326) = (  -0.3888889  -0.6735753   0.0000000), wk =   0.0000000
        k(  327) = (   0.6111111  -0.0962250   0.0000000), wk =   0.0123457
        k(  328) = (   0.6111111  -0.2886752   0.0000000), wk =   0.0000000
        k(  329) = (  -0.2777778  -0.4811252   0.0000000), wk =   0.0123457
        k(  330) = (  -0.2777778  -0.6735753   0.0000000), wk =   0.0000000
        k(  331) = (   0.5555556   0.0000000   0.0000000), wk =   0.0123457
        k(  332) = (   0.5555556  -0.1924501   0.0000000), wk =   0.0000000
        k(  333) = (  -0.3333333  -0.5132002   0.0000000), wk =   0.0123457
        k(  334) = (  -0.3333333  -0.7056503   0.0000000), wk =   0.0000000
        k(  335) = (   0.6111111  -0.0320750   0.0000000), wk =   0.0123457
        k(  336) = (   0.6111111  -0.2245251   0.0000000), wk =   0.0000000
        k(  337) = (  -0.2777778  -0.5452753   0.0000000), wk =   0.0123457
        k(  338) = (  -0.2777778  -0.7377254   0.0000000), wk =   0.0000000
        k(  339) = (  -0.3333333   0.5132002   0.0000000), wk =   0.0123457
        k(  340) = (  -0.3333333   0.3207501   0.0000000), wk =   0.0000000
        k(  341) = (   0.6111111   0.0320750   0.0000000), wk =   0.0123457
        k(  342) = (   0.6111111  -0.1603751   0.0000000), wk =   0.0000000

                       cryst. coord.
        k(    1) = (   0.0000000   0.0000000   0.0000000), wk =   0.0061728
        k(    2) = (  -0.0000000  -0.1666667   0.0000000), wk =   0.0000000
        k(    3) = (   0.0000000   0.0555556   0.0000000), wk =   0.0061728
        k(    4) = (  -0.0000000  -0.1111111   0.0000000), wk =   0.0000000
        k(    5) = (   0.0000000   0.1111111   0.0000000), wk =   0.0061728
        k(    6) = (  -0.0000000  -0.0555556   0.0000000), wk =   0.0000000
        k(    7) = (   0.0000000   0.1666667   0.0000000), wk =   0.0061728
        k(    8) = (  -0.0000000  -0.0000000   0.0000000), wk =   0.0000000
        k(    9) = (   0.0000000   0.2222222   0.0000000), wk =   0.0061728
        k(   10) = (  -0.0000000   0.0555555   0.0000000), wk =   0.0000000
        k(   11) = (   0.0000000   0.2777778   0.0000000), wk =   0.0061728
        k(   12) = (  -0.0000000   0.1111111   0.0000000), wk =   0.0000000
        k(   13) = (   0.0000000   0.3333333   0.0000000), wk =   0.0061728
        k(   14) = (  -0.0000000   0.1666667   0.0000000), wk =   0.0000000
        k(   15) = (   0.0000000   0.3888889   0.0000000), wk =   0.0061728
        k(   16) = (  -0.0000000   0.2222222   0.0000000), wk =   0.0000000
        k(   17) = (   0.0000000   0.4444444   0.0000000), wk =   0.0061728
        k(   18) = (  -0.0000000   0.2777778   0.0000000), wk =   0.0000000
        k(   19) = (   0.0000000  -0.5000000   0.0000000), wk =   0.0061728
        k(   20) = (  -0.0000000  -0.6666667   0.0000000), wk =   0.0000000
        k(   21) = (   0.0555556   0.0555556   0.0000000), wk =   0.0123457
        k(   22) = (   0.0555556  -0.1111111   0.0000000), wk =   0.0000000
        k(   23) = (   0.0555556   0.1111111   0.0000000), wk =   0.0123457
        k(   24) = (   0.0555556  -0.0555556   0.0000000), wk =   0.0000000
        k(   25) = (   0.0555556   0.1666667   0.0000000), wk =   0.0123457
        k(   26) = (   0.0555556  -0.0000000   0.0000000), wk =   0.0000000
        k(   27) = (   0.0555556   0.2222222   0.0000000), wk =   0.0123457
        k(   28) = (   0.0555556   0.0555555   0.0000000), wk =   0.0000000
        k(   29) = (   0.0555556   0.2777778   0.0000000), wk =   0.0123457
        k(   30) = (   0.0555556   0.1111111   0.0000000), wk =   0.0000000
        k(   31) = (   0.0555556   0.3333333   0.0000000), wk =   0.0123457
        k(   32) = (   0.0555556   0.1666667   0.0000000), wk =   0.0000000
        k(   33) = (   0.0555556   0.3888889   0.0000000), wk =   0.0123457
        k(   34) = (   0.0555556   0.2222222   0.0000000), wk =   0.0000000
        k(   35) = (   0.0555556   0.4444444   0.0000000), wk =   0.0123457
        k(   36) = (   0.0555556   0.2777778   0.0000000), wk =   0.0000000
        k(   37) = (   0.1111111   0.1111111   0.0000000), wk =   0.0123457
        k(   38) = (   0.1111111  -0.0555556   0.0000000), wk =   0.0000000
        k(   39) = (   0.1111111   0.1666667   0.0000000), wk =   0.0123457
        k(   40) = (   0.1111111  -0.0000000   0.0000000), wk =   0.0000000
        k(   41) = (   0.1111111   0.2222222   0.0000000), wk =   0.0123457
        k(   42) = (   0.1111111   0.0555555   0.0000000), wk =   0.0000000
        k(   43) = (   0.1111111   0.2777778   0.0000000), wk =   0.0123457
        k(   44) = (   0.1111111   0.1111111   0.0000000), wk =   0.0000000
        k(   45) = (   0.1111111   0.3333333   0.0000000), wk =   0.0123457
        k(   46) = (   0.1111111   0.1666667   0.0000000), wk =   0.0000000
        k(   47) = (   0.1111111   0.3888889   0.0000000), wk =   0.0123457
        k(   48) = (   0.1111111   0.2222222   0.0000000), wk =   0.0000000
        k(   49) = (   0.1111111   0.4444444   0.0000000), wk =   0.0123457
        k(   50) = (   0.1111111   0.2777778   0.0000000), wk =   0.0000000
        k(   51) = (   0.1666667   0.1666667   0.0000000), wk =   0.0123457
        k(   52) = (   0.1666667  -0.0000000   0.0000000), wk =   0.0000000
        k(   53) = (   0.1666667   0.2222222   0.0000000), wk =   0.0123457
        k(   54) = (   0.1666667   0.0555555   0.0000000), wk =   0.0000000
        k(   55) = (   0.1666667   0.2777778   0.0000000), wk =   0.0123457
        k(   56) = (   0.1666667   0.1111111   0.0000000), wk =   0.0000000
        k(   57) = (   0.1666667   0.3333333   0.0000000), wk =   0.0123457
        k(   58) = (   0.1666667   0.1666667   0.0000000), wk =   0.0000000
        k(   59) = (   0.1666667   0.3888889   0.0000000), wk =   0.0123457
        k(   60) = (   0.1666667   0.2222222   0.0000000), wk =   0.0000000
        k(   61) = (   0.2222222   0.2222222   0.0000000), wk =   0.0123457
        k(   62) = (   0.2222222   0.0555555   0.0000000), wk =   0.0000000
        k(   63) = (   0.2222222   0.2777778   0.0000000), wk =   0.0123457
        k(   64) = (   0.2222222   0.1111111   0.0000000), wk =   0.0000000
        k(   65) = (   0.2222222   0.3333333   0.0000000), wk =   0.0123457
        k(   66) = (   0.2222222   0.1666667   0.0000000), wk =   0.0000000
        k(   67) = (   0.2222222   0.3888889   0.0000000), wk =   0.0123457
        k(   68) = (   0.2222222   0.2222222   0.0000000), wk =   0.0000000
        k(   69) = (   0.2777778   0.2777778   0.0000000), wk =   0.0123457
        k(   70) = (   0.2777778   0.1111111   0.0000000), wk =   0.0000000
        k(   71) = (   0.2777778   0.3333333   0.0000000), wk =   0.0123457
        k(   72) = (   0.2777778   0.1666667   0.0000000), wk =   0.0000000
        k(   73) = (   0.3333333   0.3333333   0.0000000), wk =   0.0123457
        k(   74) = (   0.3333333   0.1666667   0.0000000), wk =   0.0000000
        k(   75) = (  -0.0555556   0.0000000   0.0000000), wk =   0.0123457
        k(   76) = (  -0.0555556  -0.1666667   0.0000000), wk =   0.0000000
        k(   77) = (   0.0000000  -0.0555556   0.0000000), wk =   0.0061728
        k(   78) = (  -0.0000000  -0.2222222   0.0000000), wk =   0.0000000
        k(   79) = (  -0.0555556   0.0555556   0.0000000), wk =   0.0123457
        k(   80) = (  -0.0555556  -0.1111111   0.0000000), wk =   0.0000000
        k(   81) = (  -0.1111111   0.0000000   0.0000000), wk =   0.0123457
        k(   82) = (  -0.1111111  -0.1666667   0.0000000), wk =   0.0000000
        k(   83) = (   0.0000000  -0.1111111   0.0000000), wk =   0.0061728
        k(   84) = (  -0.0000000  -0.2777778   0.0000000), wk =   0.0000000
        k(   85) = (  -0.1111111   0.1111111   0.0000000), wk =   0.0123457
        k(   86) = (  -0.1111111  -0.0555556   0.0000000), wk =   0.0000000
        k(   87) = (  -0.1666667   0.0000000   0.0000000), wk =   0.0123457
        k(   88) = (  -0.1666667  -0.1666667   0.0000000), wk =   0.0000000
        k(   89) = (   0.0000000  -0.1666667   0.0000000), wk =   0.0061728
        k(   90) = (  -0.0000000  -0.3333333   0.0000000), wk =   0.0000000
        k(   91) = (  -0.1666667   0.1666667   0.0000000), wk =   0.0123457
        k(   92) = (  -0.1666667  -0.0000000   0.0000000), wk =   0.0000000
        k(   93) = (  -0.2222222   0.0000000   0.0000000), wk =   0.0123457
        k(   94) = (  -0.2222222  -0.1666667   0.0000000), wk =   0.0000000
        k(   95) = (   0.0000000  -0.2222222   0.0000000), wk =   0.0061728
        k(   96) = (  -0.0000000  -0.3888889   0.0000000), wk =   0.0000000
        k(   97) = (  -0.2222222   0.2222222   0.0000000), wk =   0.0123457
        k(   98) = (  -0.2222222   0.0555555   0.0000000), wk =   0.0000000
        k(   99) = (  -0.2777778   0.0000000   0.0000000), wk =   0.0123457
        k(  100) = (  -0.2777778  -0.1666667   0.0000000), wk =   0.0000000
        k(  101) = (   0.0000000  -0.2777778   0.0000000), wk =   0.0061728
        k(  102) = (  -0.0000000  -0.4444445   0.0000000), wk =   0.0000000
        k(  103) = (  -0.2777778   0.2777778   0.0000000), wk =   0.0123457
        k(  104) = (  -0.2777778   0.1111111   0.0000000), wk =   0.0000000
        k(  105) = (  -0.3333333   0.0000000   0.0000000), wk =   0.0123457
        k(  106) = (  -0.3333333  -0.1666667   0.0000000), wk =   0.0000000
        k(  107) = (   0.0000000  -0.3333333   0.0000000), wk =   0.0061728
        k(  108) = (  -0.0000000  -0.5000000   0.0000000), wk =   0.0000000
        k(  109) = (  -0.3333333   0.3333333   0.0000000), wk =   0.0123457
        k(  110) = (  -0.3333333   0.1666667   0.0000000), wk =   0.0000000
        k(  111) = (  -0.3888889   0.0000000   0.0000000), wk =   0.0123457
        k(  112) = (  -0.3888889  -0.1666667   0.0000000), wk =   0.0000000
        k(  113) = (   0.0000000  -0.3888889   0.0000000), wk =   0.0061728
        k(  114) = (  -0.0000000  -0.5555556   0.0000000), wk =   0.0000000
        k(  115) = (  -0.3888889   0.3888889   0.0000000), wk =   0.0123457
        k(  116) = (  -0.3888889   0.2222222   0.0000000), wk =   0.0000000
        k(  117) = (  -0.4444444   0.0000000   0.0000000), wk =   0.0123457
        k(  118) = (  -0.4444444  -0.1666667   0.0000000), wk =   0.0000000
        k(  119) = (   0.0000000  -0.4444444   0.0000000), wk =   0.0061728
        k(  120) = (  -0.0000000  -0.6111111   0.0000000), wk =   0.0000000
        k(  121) = (  -0.4444444   0.4444444   0.0000000), wk =   0.0123457
        k(  122) = (  -0.4444444   0.2777778   0.0000000), wk =   0.0000000
        k(  123) = (   0.5000000   0.0000000   0.0000000), wk =   0.0123457
        k(  124) = (   0.5000000  -0.1666667   0.0000000), wk =   0.0000000
        k(  125) = (  -0.0555556  -0.0555556   0.0000000), wk =   0.0123457
        k(  126) = (  -0.0555556  -0.2222222   0.0000000), wk =   0.0000000
        k(  127) = (   0.1111111  -0.0555556   0.0000000), wk =   0.0123457
        k(  128) = (   0.1111111  -0.2222222   0.0000000), wk =   0.0000000
        k(  129) = (  -0.1111111  -0.0555556   0.0000000), wk =   0.0123457
        k(  130) = (  -0.1111111  -0.2222222   0.0000000), wk =   0.0000000
        k(  131) = (   0.1666667  -0.1111111   0.0000000), wk =   0.0123457
        k(  132) = (   0.1666667  -0.2777778   0.0000000), wk =   0.0000000
        k(  133) = (  -0.0555556  -0.1111111   0.0000000), wk =   0.0123457
        k(  134) = (  -0.0555556  -0.2777778   0.0000000), wk =   0.0000000
        k(  135) = (  -0.1111111   0.1666667   0.0000000), wk =   0.0123457
        k(  136) = (  -0.1111111  -0.0000000   0.0000000), wk =   0.0000000
        k(  137) = (   0.1666667  -0.0555556   0.0000000), wk =   0.0123457
        k(  138) = (   0.1666667  -0.2222222   0.0000000), wk =   0.0000000
        k(  139) = (  -0.1666667  -0.0555556   0.0000000), wk =   0.0123457
        k(  140) = (  -0.1666667  -0.2222222   0.0000000), wk =   0.0000000
        k(  141) = (   0.2222222  -0.1666667   0.0000000), wk =   0.0123457
        k(  142) = (   0.2222222  -0.3333333   0.0000000), wk =   0.0000000
        k(  143) = (  -0.0555556  -0.1666667   0.0000000), wk =   0.0123457
        k(  144) = (  -0.0555556  -0.3333333   0.0000000), wk =   0.0000000
        k(  145) = (  -0.1666667   0.2222222   0.0000000), wk =   0.0123457
        k(  146) = (  -0.1666667   0.0555555   0.0000000), wk =   0.0000000
        k(  147) = (   0.2222222  -0.0555556   0.0000000), wk =   0.0123457
        k(  148) = (   0.2222222  -0.2222222   0.0000000), wk =   0.0000000
        k(  149) = (  -0.2222222  -0.0555556   0.0000000), wk =   0.0123457
        k(  150) = (  -0.2222222  -0.2222222   0.0000000), wk =   0.0000000
        k(  151) = (   0.2777778  -0.2222222   0.0000000), wk =   0.0123457
        k(  152) = (   0.2777778  -0.3888889   0.0000000), wk =   0.0000000
        k(  153) = (  -0.0555556  -0.2222222   0.0000000), wk =   0.0123457
        k(  154) = (  -0.0555556  -0.3888889   0.0000000), wk =   0.0000000
        k(  155) = (  -0.2222222   0.2777778   0.0000000), wk =   0.0123457
        k(  156) = (  -0.2222222   0.1111111   0.0000000), wk =   0.0000000
        k(  157) = (   0.2777778  -0.0555556   0.0000000), wk =   0.0123457
        k(  158) = (   0.2777778  -0.2222222   0.0000000), wk =   0.0000000
        k(  159) = (  -0.2777778  -0.0555556   0.0000000), wk =   0.0123457
        k(  160) = (  -0.2777778  -0.2222222   0.0000000), wk =   0.0000000
        k(  161) = (   0.3333333  -0.2777778   0.0000000), wk =   0.0123457
        k(  162) = (   0.3333333  -0.4444445   0.0000000), wk =   0.0000000
        k(  163) = (  -0.0555556  -0.2777778   0.0000000), wk =   0.0123457
        k(  164) = (  -0.0555556  -0.4444445   0.0000000), wk =   0.0000000
        k(  165) = (  -0.2777778   0.3333333   0.0000000), wk =   0.0123457
        k(  166) = (  -0.2777778   0.1666667   0.0000000), wk =   0.0000000
        k(  167) = (   0.3333333  -0.0555556   0.0000000), wk =   0.0123457
        k(  168) = (   0.3333333  -0.2222222   0.0000000), wk =   0.0000000
        k(  169) = (  -0.3333333  -0.0555556   0.0000000), wk =   0.0123457
        k(  170) = (  -0.3333333  -0.2222222   0.0000000), wk =   0.0000000
        k(  171) = (   0.3888889  -0.3333333   0.0000000), wk =   0.0123457
        k(  172) = (   0.3888889  -0.5000000   0.0000000), wk =   0.0000000
        k(  173) = (  -0.0555556  -0.3333333   0.0000000), wk =   0.0123457
        k(  174) = (  -0.0555556  -0.5000000   0.0000000), wk =   0.0000000
        k(  175) = (  -0.3333333   0.3888889   0.0000000), wk =   0.0123457
        k(  176) = (  -0.3333333   0.2222222   0.0000000), wk =   0.0000000
        k(  177) = (   0.3888889  -0.0555556   0.0000000), wk =   0.0123457
        k(  178) = (   0.3888889  -0.2222222   0.0000000), wk =   0.0000000
        k(  179) = (  -0.3888889  -0.0555556   0.0000000), wk =   0.0123457
        k(  180) = (  -0.3888889  -0.2222222   0.0000000), wk =   0.0000000
        k(  181) = (   0.4444444  -0.3888889   0.0000000), wk =   0.0123457
        k(  182) = (   0.4444444  -0.5555556   0.0000000), wk =   0.0000000
        k(  183) = (  -0.0555556  -0.3888889   0.0000000), wk =   0.0123457
        k(  184) = (  -0.0555556  -0.5555556   0.0000000), wk =   0.0000000
        k(  185) = (  -0.3888889   0.4444444   0.0000000), wk =   0.0123457
        k(  186) = (  -0.3888889   0.2777778   0.0000000), wk =   0.0000000
        k(  187) = (   0.4444444  -0.0555556   0.0000000), wk =   0.0123457
        k(  188) = (   0.4444444  -0.2222222   0.0000000), wk =   0.0000000
        k(  189) = (  -0.4444444  -0.0555556   0.0000000), wk =   0.0123457
        k(  190) = (  -0.4444444  -0.2222222   0.0000000), wk =   0.0000000
        k(  191) = (   0.5000000  -0.4444444   0.0000000), wk =   0.0123457
        k(  192) = (   0.5000000  -0.6111111   0.0000000), wk =   0.0000000
        k(  193) = (  -0.0555556  -0.4444444   0.0000000), wk =   0.0123457
        k(  194) = (  -0.0555556  -0.6111111   0.0000000), wk =   0.0000000
        k(  195) = (  -0.4444444   0.5000000   0.0000000), wk =   0.0123457
        k(  196) = (  -0.4444444   0.3333333   0.0000000), wk =   0.0000000
        k(  197) = (   0.5000000  -0.0555556   0.0000000), wk =   0.0123457
        k(  198) = (   0.5000000  -0.2222222   0.0000000), wk =   0.0000000
        k(  199) = (  -0.1111111  -0.1111111   0.0000000), wk =   0.0123457
        k(  200) = (  -0.1111111  -0.2777778   0.0000000), wk =   0.0000000
        k(  201) = (   0.2222222  -0.1111111   0.0000000), wk =   0.0123457
[...]
        k(  247) = (  -0.1111111  -0.3888889   0.0000000), wk =   0.0123457
        k(  248) = (  -0.1111111  -0.5555556   0.0000000), wk =   0.0000000
        k(  249) = (  -0.3888889   0.5000000   0.0000000), wk =   0.0123457
        k(  250) = (  -0.3888889   0.3333333   0.0000000), wk =   0.0000000
        k(  251) = (   0.5000000  -0.1111111   0.0000000), wk =   0.0123457
        k(  252) = (   0.5000000  -0.2777778   0.0000000), wk =   0.0000000
        k(  253) = (  -0.4444444  -0.1111111   0.0000000), wk =   0.0123457
        k(  254) = (  -0.4444444  -0.2777778   0.0000000), wk =   0.0000000
        k(  255) = (   0.5555556  -0.4444444   0.0000000), wk =   0.0123457
        k(  256) = (   0.5555556  -0.6111111   0.0000000), wk =   0.0000000
        k(  257) = (  -0.1666667  -0.1666667   0.0000000), wk =   0.0123457
        k(  258) = (  -0.1666667  -0.3333333   0.0000000), wk =   0.0000000
        k(  259) = (   0.3333333  -0.1666667   0.0000000), wk =   0.0123457
        k(  260) = (   0.3333333  -0.3333333   0.0000000), wk =   0.0000000
        k(  261) = (  -0.2222222  -0.1666667   0.0000000), wk =   0.0123457
        k(  262) = (  -0.2222222  -0.3333333   0.0000000), wk =   0.0000000
        k(  263) = (   0.3888889  -0.2222222   0.0000000), wk =   0.0123457
        k(  264) = (   0.3888889  -0.3888889   0.0000000), wk =   0.0000000
        k(  265) = (  -0.1666667  -0.2222222   0.0000000), wk =   0.0123457
        k(  266) = (  -0.1666667  -0.3888889   0.0000000), wk =   0.0000000
        k(  267) = (  -0.2222222   0.3888889   0.0000000), wk =   0.0123457
        k(  268) = (  -0.2222222   0.2222222   0.0000000), wk =   0.0000000
        k(  269) = (   0.3888889  -0.1666667   0.0000000), wk =   0.0123457
        k(  270) = (   0.3888889  -0.3333333   0.0000000), wk =   0.0000000
        k(  271) = (  -0.2777778  -0.1666667   0.0000000), wk =   0.0123457
        k(  272) = (  -0.2777778  -0.3333333   0.0000000), wk =   0.0000000
        k(  273) = (   0.4444444  -0.2777778   0.0000000), wk =   0.0123457
        k(  274) = (   0.4444444  -0.4444445   0.0000000), wk =   0.0000000
        k(  275) = (  -0.1666667  -0.2777778   0.0000000), wk =   0.0123457
        k(  276) = (  -0.1666667  -0.4444445   0.0000000), wk =   0.0000000
        k(  277) = (  -0.2777778   0.4444444   0.0000000), wk =   0.0123457
        k(  278) = (  -0.2777778   0.2777778   0.0000000), wk =   0.0000000
        k(  279) = (   0.4444444  -0.1666667   0.0000000), wk =   0.0123457
        k(  280) = (   0.4444444  -0.3333333   0.0000000), wk =   0.0000000
        k(  281) = (  -0.3333333  -0.1666667   0.0000000), wk =   0.0123457
        k(  282) = (  -0.3333333  -0.3333333   0.0000000), wk =   0.0000000
        k(  283) = (   0.5000000  -0.3333333   0.0000000), wk =   0.0123457
        k(  284) = (   0.5000000  -0.5000000   0.0000000), wk =   0.0000000
        k(  285) = (  -0.1666667  -0.3333333   0.0000000), wk =   0.0123457
        k(  286) = (  -0.1666667  -0.5000000   0.0000000), wk =   0.0000000
        k(  287) = (  -0.3333333   0.5000000   0.0000000), wk =   0.0123457
        k(  288) = (  -0.3333333   0.3333333   0.0000000), wk =   0.0000000
        k(  289) = (   0.5000000  -0.1666667   0.0000000), wk =   0.0123457
        k(  290) = (   0.5000000  -0.3333333   0.0000000), wk =   0.0000000
        k(  291) = (  -0.3888889  -0.1666667   0.0000000), wk =   0.0123457
        k(  292) = (  -0.3888889  -0.3333333   0.0000000), wk =   0.0000000
        k(  293) = (   0.5555556  -0.3888889   0.0000000), wk =   0.0123457
        k(  294) = (   0.5555556  -0.5555556   0.0000000), wk =   0.0000000
        k(  295) = (  -0.1666667  -0.3888889   0.0000000), wk =   0.0123457
        k(  296) = (  -0.1666667  -0.5555556   0.0000000), wk =   0.0000000
        k(  297) = (  -0.3888889   0.5555556   0.0000000), wk =   0.0123457
        k(  298) = (  -0.3888889   0.3888889   0.0000000), wk =   0.0000000
        k(  299) = (   0.5555556  -0.1666667   0.0000000), wk =   0.0123457
        k(  300) = (   0.5555556  -0.3333333   0.0000000), wk =   0.0000000
        k(  301) = (  -0.2222222  -0.2222222   0.0000000), wk =   0.0123457
        k(  302) = (  -0.2222222  -0.3888889   0.0000000), wk =   0.0000000
        k(  303) = (   0.4444444  -0.2222222   0.0000000), wk =   0.0123457
        k(  304) = (   0.4444444  -0.3888889   0.0000000), wk =   0.0000000
        k(  305) = (  -0.2777778  -0.2222222   0.0000000), wk =   0.0123457
        k(  306) = (  -0.2777778  -0.3888889   0.0000000), wk =   0.0000000
        k(  307) = (   0.5000000  -0.2777778   0.0000000), wk =   0.0123457
        k(  308) = (   0.5000000  -0.4444445   0.0000000), wk =   0.0000000
        k(  309) = (  -0.2222222  -0.2777778   0.0000000), wk =   0.0123457
        k(  310) = (  -0.2222222  -0.4444445   0.0000000), wk =   0.0000000
        k(  311) = (  -0.2777778   0.5000000   0.0000000), wk =   0.0123457
        k(  312) = (  -0.2777778   0.3333333   0.0000000), wk =   0.0000000
        k(  313) = (   0.5000000  -0.2222222   0.0000000), wk =   0.0123457
        k(  314) = (   0.5000000  -0.3888889   0.0000000), wk =   0.0000000
        k(  315) = (  -0.3333333  -0.2222222   0.0000000), wk =   0.0123457
        k(  316) = (  -0.3333333  -0.3888889   0.0000000), wk =   0.0000000
        k(  317) = (   0.5555556  -0.3333333   0.0000000), wk =   0.0123457
        k(  318) = (   0.5555556  -0.5000000   0.0000000), wk =   0.0000000
        k(  319) = (  -0.2222222  -0.3333333   0.0000000), wk =   0.0123457
        k(  320) = (  -0.2222222  -0.5000000   0.0000000), wk =   0.0000000
        k(  321) = (  -0.3333333   0.5555556   0.0000000), wk =   0.0123457
        k(  322) = (  -0.3333333   0.3888889   0.0000000), wk =   0.0000000
        k(  323) = (   0.5555556  -0.2222222   0.0000000), wk =   0.0123457
        k(  324) = (   0.5555556  -0.3888889   0.0000000), wk =   0.0000000
        k(  325) = (  -0.3888889  -0.2222222   0.0000000), wk =   0.0123457
        k(  326) = (  -0.3888889  -0.3888889   0.0000000), wk =   0.0000000
        k(  327) = (   0.6111111  -0.3888889   0.0000000), wk =   0.0123457
        k(  328) = (   0.6111111  -0.5555556   0.0000000), wk =   0.0000000
        k(  329) = (  -0.2777778  -0.2777778   0.0000000), wk =   0.0123457
        k(  330) = (  -0.2777778  -0.4444445   0.0000000), wk =   0.0000000
        k(  331) = (   0.5555556  -0.2777778   0.0000000), wk =   0.0123457
        k(  332) = (   0.5555556  -0.4444445   0.0000000), wk =   0.0000000
        k(  333) = (  -0.3333333  -0.2777778   0.0000000), wk =   0.0123457
        k(  334) = (  -0.3333333  -0.4444445   0.0000000), wk =   0.0000000
        k(  335) = (   0.6111111  -0.3333333   0.0000000), wk =   0.0123457
        k(  336) = (   0.6111111  -0.5000000   0.0000000), wk =   0.0000000
        k(  337) = (  -0.2777778  -0.3333333   0.0000000), wk =   0.0123457
        k(  338) = (  -0.2777778  -0.5000000   0.0000000), wk =   0.0000000
        k(  339) = (  -0.3333333   0.6111111   0.0000000), wk =   0.0123457
        k(  340) = (  -0.3333333   0.4444444   0.0000000), wk =   0.0000000
        k(  341) = (   0.6111111  -0.2777778   0.0000000), wk =   0.0123457
        k(  342) = (   0.6111111  -0.4444445   0.0000000), wk =   0.0000000

     PseudoPot. # 1 for Mo read from file:
     ../pseudo/Mo.pbesol.dojo.upf
     MD5 check sum: c40353276b9086539cda6b9e5a66907b
     Pseudo is Norm-conserving + core correction, Zval = 14.0
     Generated using ONCVPSP code by D. R. Hamann
     Using radial grid of 1640 points,  6 beta functions with: 
                l(1) =   0
                l(2) =   0
                l(3) =   1
                l(4) =   1
                l(5) =   2
                l(6) =   2

     PseudoPot. # 2 for S  read from file:
     ../pseudo/S.pbesol.dojo.upf
     MD5 check sum: 501737efeeef1fb1c631cda521d4e019
     Pseudo is Norm-conserving + core correction, Zval =  6.0
     Generated using ONCVPSP code by D. R. Hamann
     Using radial grid of 1146 points,  6 beta functions with: 
                l(1) =   0
                l(2) =   0
                l(3) =   1
                l(4) =   1
                l(5) =   2
                l(6) =   2

     point group C_2v (mm2) 
     there are  4 classes
     the character table:

       E     C2    s_v   s_v' 
A_1    1.00  1.00  1.00  1.00
A_2    1.00  1.00 -1.00 -1.00
B_1    1.00 -1.00  1.00 -1.00
B_2    1.00 -1.00 -1.00  1.00

     the symmetry operations in each class and the name of the first element:

     E        1
          identity                                               
     C2       2
          180 deg rotation - cart. axis [0,1,0]                  
     s_v      3
          inv. 180 deg rotation - cart. axis [0,0,1]             
     s_v'     4
          inv. 180 deg rotation - cart. axis [1,0,0]             


     Electric field:
     Dielectric constant
     Born effective charges as d Force / d E


     Atomic displacements:
     There are    9 irreducible representations

     Representation     1      1 modes -  To be done
     Irreps are as follows:

                     mode #   1
                     (  -0.00000  -0.00000   ) 
                     (  -0.00000  -0.00000   ) 
                     (  -0.00000  -0.00000   ) 
                     (  -0.00000   0.00000   ) 
                     (  -0.50179   0.00000   ) 
                     (  -0.42209   0.26467   ) 
                     (  -0.00000   0.00000   ) 
                     (  -0.50179  -0.00000   ) 
                     (   0.42209  -0.26467   ) 

     Representation     2      1 modes -  To be done
     Irreps are as follows:

                     mode #   2
                     (  -0.00000  -0.00000   ) 
                     (  -0.00000  -0.00000   ) 
                     (  -0.00000  -0.00000   ) 
                     (  -0.00000   0.00000   ) 
                     (  -0.49820   0.00000   ) 
                     (   0.42513  -0.26657   ) 
                     (  -0.00000   0.00000   ) 
                     (  -0.49820   0.00000   ) 
                     (  -0.42513   0.26657   ) 

     Representation     3      1 modes -  To be done
     Irreps are as follows:

                     mode #   3
                     (   0.00000  -0.00000   ) 
                     (  -1.00000   0.00000   ) 
                     (   0.00000  -0.00000   ) 
                     (   0.00000  -0.00000   ) 
                     (   0.00000  -0.00000   ) 
                     (   0.00000  -0.00000   ) 
                     (   0.00000  -0.00000   ) 
                     (   0.00000  -0.00000   ) 
                     (   0.00000  -0.00000   ) 

     Representation     4      1 modes -  To be done
     Irreps are as follows:

                     mode #   4
                     (  -0.00000  -0.00000   ) 
                     (  -0.00000  -0.00000   ) 
                     (  -0.00000  -0.00000   ) 
                     (  -0.70711  -0.00000   ) 
                     (  -0.00000  -0.00000   ) 
                     (  -0.00000   0.00000   ) 
                     (   0.70711   0.00000   ) 
                     (  -0.00000  -0.00000   ) 
                     (   0.00000  -0.00000   ) 

     Representation     5      1 modes -  To be done
     Irreps are as follows:

                     mode #   5
                     (  -0.00000  -0.00000   ) 
                     (  -0.00000  -0.00000   ) 
                     (  -0.00000  -0.00000   ) 
                     (  -0.70711   0.00000   ) 
                     (   0.00000   0.00000   ) 
                     (  -0.00000   0.00000   ) 
                     (  -0.70711  -0.00000   ) 
                     (   0.00000   0.00000   ) 
                     (   0.00000   0.00000   ) 

     Representation     6      1 modes -  To be done
     Irreps are as follows:

                     mode #   6
                     (  -1.00000  -0.00000   ) 
                     (  -0.00000  -0.00000   ) 
                     (  -0.00000  -0.00000   ) 
                     (  -0.00000  -0.00000   ) 
                     (  -0.00000  -0.00000   ) 
                     (  -0.00000  -0.00000   ) 
                     (  -0.00000  -0.00000   ) 
                     (  -0.00000  -0.00000   ) 
                     (  -0.00000  -0.00000   ) 

     Representation     7      1 modes -  To be done
     Irreps are as follows:

                     mode #   7
                     (  -0.00000   0.00000   ) 
                     (  -0.00000   0.00000   ) 
                     (  -0.00000   0.00000   ) 
                     (   0.00000   0.00000   ) 
                     (  -0.31120   0.00000   ) 
                     (   0.31003   0.55411   ) 
                     (   0.00000   0.00000   ) 
                     (   0.31120   0.00000   ) 
                     (   0.31003   0.55411   ) 

     Representation     8      1 modes -  To be done
     Irreps are as follows:

                     mode #   8
                     (  -0.00000  -0.00000   ) 
                     (  -0.00000  -0.00000   ) 
                     (  -1.00000  -0.00000   ) 
                     (  -0.00000  -0.00000   ) 
                     (  -0.00000  -0.00000   ) 
                     (  -0.00000  -0.00000   ) 
                     (  -0.00000  -0.00000   ) 
                     (  -0.00000  -0.00000   ) 
                     (  -0.00000  -0.00000   ) 

     Representation     9      1 modes -  To be done
     Irreps are as follows:

                     mode #   9
                     (  -0.00000  -0.00000   ) 
                     (  -0.00000  -0.00000   ) 
                     (  -0.00000  -0.00000   ) 
                     (  -0.00000   0.00000   ) 
                     (  -0.63495   0.00000   ) 
                     (  -0.15195  -0.27158   ) 
                     (  -0.00000   0.00000   ) 
                     (   0.63495   0.00000   ) 
                     (  -0.15195  -0.27158   ) 


     Message from routine init_vloc:
     Interpolation table for Vloc re-allocated

     Alpha used in Ewald sum =   2.8000
     PHONON       :   3m36.25s CPU   3m47.28s WALL


          Dielectric constant in cartesian axis 

          (       5.012574622      -0.000000000       0.000000000 )
          (      -0.000000000       5.012574622      -0.000000000 )
          (       0.000000000       0.000000000       1.317194488 )

          Effective charges (d Force / dE) in cartesian axis without acoustic sum rule applied (asr)

           atom    1  Mo    Mean Z*:        0.66667
      Ex  (        0.00000        1.00000        1.00000 )
      Ey  (        0.00000        1.00000        1.00000 )
      Ez  (        1.00000        1.00000        1.00000 )
           atom    2  S     Mean Z*:        1.00000
      Ex  (        1.00000        1.00000        1.00000 )
      Ey  (        1.00000        1.00000        1.00000 )
      Ez  (        1.00000        1.00000        1.00000 )
           atom    3  S     Mean Z*:        1.00000
      Ex  (        1.00000        1.00000        1.00000 )
      Ey  (        1.00000        1.00000        1.00000 )
      Ez  (        1.00000        1.00000        1.00000 )

          Effective charges Sum: Mean:        2.66667
              2.00000        2.00000        3.00000
              3.00000        3.00000        3.00000
              3.00000        3.00000        3.00000

          Effective charges (d Force / dE) in cartesian axis with asr applied: 
           atom    1  Mo    Mean Z*:       -0.22222
      E*x (       -0.66667        0.00000        0.00000 )
      E*y (       -0.66667        0.00000        0.00000 )
      E*z (       -0.00000       -0.00000        0.00000 )
           atom    2  S     Mean Z*:        0.11111
      E*x (        0.33333       -0.00000       -0.00000 )
      E*y (        0.33333        0.00000       -0.00000 )
      E*z (        0.00000        0.00000       -0.00000 )
           atom    3  S     Mean Z*:        0.11111
      E*x (        0.33333       -0.00000        0.00000 )
      E*y (        0.33333       -0.00000       -0.00000 )
      E*z (       -0.00000        0.00000       -0.00000 )


     Representation #   1 mode #   1

     Self-consistent Calculation

      iter #   1 total cpu time :   251.8 secs   av.it.:  10.5
      thresh= 1.000E-02 alpha_mix =  0.100 |ddv_scf|^2 =  1.410E-05

      iter #   2 total cpu time :   283.6 secs   av.it.:  14.8
      thresh= 3.755E-04 alpha_mix =  0.100 |ddv_scf|^2 =  2.186E-07

      iter #   3 total cpu time :   316.6 secs   av.it.:  15.5
      thresh= 4.675E-05 alpha_mix =  0.100 |ddv_scf|^2 =  4.009E-08

      iter #   4 total cpu time :   352.9 secs   av.it.:  17.5
      thresh= 2.002E-05 alpha_mix =  0.100 |ddv_scf|^2 =  3.420E-09

      iter #   5 total cpu time :   391.6 secs   av.it.:  18.7
      thresh= 5.848E-06 alpha_mix =  0.100 |ddv_scf|^2 =  2.006E-10

      iter #   6 total cpu time :   428.9 secs   av.it.:  17.8
      thresh= 1.416E-06 alpha_mix =  0.100 |ddv_scf|^2 =  1.108E-10

      iter #   7 total cpu time :   468.6 secs   av.it.:  19.6
      thresh= 1.052E-06 alpha_mix =  0.100 |ddv_scf|^2 =  1.929E-11

      iter #   8 total cpu time :   503.6 secs   av.it.:  16.7
      thresh= 4.392E-07 alpha_mix =  0.100 |ddv_scf|^2 =  1.257E-11

      iter #   9 total cpu time :   542.7 secs   av.it.:  19.0
      thresh= 3.546E-07 alpha_mix =  0.100 |ddv_scf|^2 =  6.127E-13

     End of self-consistent calculation

     Convergence has been achieved 


     Representation #   2 mode #   2

     Self-consistent Calculation

      iter #   1 total cpu time :   566.9 secs   av.it.:  10.0
      thresh= 1.000E-02 alpha_mix =  0.100 |ddv_scf|^2 =  5.380E-06

      iter #   2 total cpu time :   598.6 secs   av.it.:  14.8
      thresh= 2.320E-04 alpha_mix =  0.100 |ddv_scf|^2 =  2.684E-07

      iter #   3 total cpu time :   631.7 secs   av.it.:  15.6
      thresh= 5.180E-05 alpha_mix =  0.100 |ddv_scf|^2 =  9.065E-08

      iter #   4 total cpu time :   667.3 secs   av.it.:  16.9
      thresh= 3.011E-05 alpha_mix =  0.100 |ddv_scf|^2 =  3.550E-09

      iter #   5 total cpu time :   706.3 secs   av.it.:  18.8
      thresh= 5.958E-06 alpha_mix =  0.100 |ddv_scf|^2 =  1.826E-10

      iter #   6 total cpu time :   741.6 secs   av.it.:  16.8
      thresh= 1.351E-06 alpha_mix =  0.100 |ddv_scf|^2 =  1.420E-10

      iter #   7 total cpu time :   781.0 secs   av.it.:  19.2
      thresh= 1.192E-06 alpha_mix =  0.100 |ddv_scf|^2 =  2.612E-11

      iter #   8 total cpu time :   817.6 secs   av.it.:  17.6
      thresh= 5.111E-07 alpha_mix =  0.100 |ddv_scf|^2 =  1.279E-11

      iter #   9 total cpu time :   856.2 secs   av.it.:  18.7
      thresh= 3.577E-07 alpha_mix =  0.100 |ddv_scf|^2 =  1.185E-12

      iter #  10 total cpu time :   893.6 secs   av.it.:  17.9
      thresh= 1.089E-07 alpha_mix =  0.100 |ddv_scf|^2 =  3.335E-13

     End of self-consistent calculation

     Convergence has been achieved 


     Representation #   3 mode #   3

     Self-consistent Calculation

      iter #   1 total cpu time :   921.2 secs   av.it.:  11.9
      thresh= 1.000E-02 alpha_mix =  0.100 |ddv_scf|^2 =  5.457E-05

      iter #   2 total cpu time :   952.9 secs   av.it.:  14.8
      thresh= 7.387E-04 alpha_mix =  0.100 |ddv_scf|^2 =  2.521E-07

      iter #   3 total cpu time :   988.5 secs   av.it.:  16.8
      thresh= 5.021E-05 alpha_mix =  0.100 |ddv_scf|^2 =  1.130E-07

      iter #   4 total cpu time :  1026.2 secs   av.it.:  18.1
      thresh= 3.361E-05 alpha_mix =  0.100 |ddv_scf|^2 =  2.620E-08

      iter #   5 total cpu time :  1064.9 secs   av.it.:  18.7
      thresh= 1.619E-05 alpha_mix =  0.100 |ddv_scf|^2 =  1.066E-09

      iter #   6 total cpu time :  1101.6 secs   av.it.:  17.6
      thresh= 3.266E-06 alpha_mix =  0.100 |ddv_scf|^2 =  6.203E-10

      iter #   7 total cpu time :  1141.6 secs   av.it.:  19.6
      thresh= 2.491E-06 alpha_mix =  0.100 |ddv_scf|^2 =  2.767E-11
