
     Program PHONON v.7.3.1 starts on 24Feb2026 at 23:23:15 

     This program is part of the open-source Quantum ESPRESSO suite
     for quantum simulation of materials; please cite
         "P. Giannozzi et al., J. Phys.:Condens. Matter 21 395502 (2009);
         "P. Giannozzi et al., J. Phys.:Condens. Matter 29 465901 (2017);
         "P. Giannozzi et al., J. Chem. Phys. 152 154105 (2020);
          URL http://www.quantum-espresso.org", 
     in publications or presentations arising from this work. More details at
     http://www.quantum-espresso.org/quote

     Parallel version (MPI), running on    64 processors

     MPI processes distributed on     2 nodes
     239598 MiB available memory on the printing compute node when the environment starts

     Waiting for input...
     Reading input from standard input
      Title line not specified: using 'default'.

     Reading xml data from directory:

     ./_ph0/MoS2.save/
     Message from routine qexsd_readschema :
     input info not found or not readable in xml file

     R & G space division:  proc/nbgrp/npool/nimage =      64
     Subspace diagonalization in iterative solution of the eigenvalue problem:
     a serial algorithm will be used


     IMPORTANT: XC functional enforced from input :
     Exchange-correlation= PBESOL
                           (   1   4  10   8   0   0   0)
     Any further DFT definition will be discarded
     Please, verify this is what you really want


     Parallelization info
     --------------------
     sticks:   dense  smooth     PW     G-vecs:    dense   smooth      PW
     Min          30      12      3                 7300     1830     289
     Max          31      13      4                 7337     1861     326
     Sum        1945     769    241               468457   118307   19361

     Using Slab Decomposition

 ----2D----2D----2D----2D----2D----2D----2D----2D----2D----2D----2D----2D
  The code is running with the 2D cutoff
  Please refer to:
  Sohier, T., Calandra, M., & Mauri, F. (2017), 
  Density functional perturbation theory for gated two-dimensional heterostructures:
  Theoretical developments and application to flexural phonons in graphene.
  Physical Review B, 96(7), 75448. https://doi.org/10.1103/PhysRevB.96.075448
 ----2D----2D----2D----2D----2D----2D----2D----2D----2D----2D----2D----2D
     read_file_ph: Wavefunctions in collected format not needed

     Saving dvscf to file. Distribute only q points, not irreducible representations.
        6 /   7 q-points for this run, from  2 to  7:
       N       xq(1)         xq(2)         xq(3) 
       1   0.000000000   0.000000000   0.000000000
       2  -0.000000003  -0.192450000   0.000000000
       3  -0.000000006  -0.384900000   0.000000000
       4   0.000000009   0.577350000   0.000000000
       5  -0.166667000  -0.288675000   0.000000000
       6  -0.166667000  -0.481125000   0.000000000
       7  -0.333333000  -0.577350000   0.000000000


     Calculation of q =   -0.0000000  -0.1924500   0.0000000

     Bands found: reading from ./_ph0/

     Reading xml data from directory:

     ./_ph0/MoS2.save/
     Message from routine qexsd_readschema :
     input info not found or not readable in xml file

     IMPORTANT: XC functional enforced from input :
     Exchange-correlation= PBESOL
                           (   1   4  10   8   0   0   0)
     Any further DFT definition will be discarded
     Please, verify this is what you really want


     Parallelization info
     --------------------
     sticks:   dense  smooth     PW     G-vecs:    dense   smooth      PW
     Min          30      12      3                 7300     1830     289
     Max          31      13      4                 7337     1861     326
     Sum        1945     769    241               468457   118307   19361

     Using Slab Decomposition

 ----2D----2D----2D----2D----2D----2D----2D----2D----2D----2D----2D----2D
  The code is running with the 2D cutoff
  Please refer to:
  Sohier, T., Calandra, M., & Mauri, F. (2017), 
  Density functional perturbation theory for gated two-dimensional heterostructures:
  Theoretical developments and application to flexural phonons in graphene.
  Physical Review B, 96(7), 75448. https://doi.org/10.1103/PhysRevB.96.075448
 ----2D----2D----2D----2D----2D----2D----2D----2D----2D----2D----2D----2D
     read_file_new: Wavefunctions not in collected format?!?
     read_file: Wavefunctions in collected format not available

     Restart in Phonon calculation

     default                                                                    

     bravais-lattice index     =            4
     lattice parameter (alat)  =       5.9477  a.u.
     unit-cell volume          =    1225.4506 (a.u.)^3
     number of atoms/cell      =            3
     number of atomic types    =            2
     kinetic-energy cut-off    =      80.0000  Ry
     charge density cut-off    =     800.0000  Ry
     convergence threshold     =      1.0E-12
     beta                      =       0.1000
     number of iterations used =            4
     Exchange-correlation= PBESOL
                           (   1   4  10   8   0   0   0)


     celldm(1)=    5.94775  celldm(2)=    0.00000  celldm(3)=    6.72523
     celldm(4)=    0.00000  celldm(5)=    0.00000  celldm(6)=    0.00000

     crystal axes: (cart. coord. in units of alat)
               a(1) = (  1.0000  0.0000  0.0000 )  
               a(2) = ( -0.5000  0.8660  0.0000 )  
               a(3) = (  0.0000  0.0000  6.7252 )  

     reciprocal axes: (cart. coord. in units 2 pi/alat)
               b(1) = (  1.0000  0.5774 -0.0000 )  
               b(2) = (  0.0000  1.1547  0.0000 )  
               b(3) = (  0.0000 -0.0000  0.1487 )  


     Atoms inside the unit cell: 

     Cartesian axes

     site n.  atom      mass           positions (alat units)
        1  Mo     95.9500   tau(    1) = (    0.00000    0.57735    0.00000  )
        2  S      32.0650   tau(    2) = (    0.50000    0.28868    0.49450  )
        3  S      32.0650   tau(    3) = (    0.50000    0.28868   -0.49450  )

     Computing dynamical matrix for 
                    q = (  -0.0000000  -0.1924500   0.0000000 )

      4 Sym.Ops. (no q -> -q+G )

                                    s                        frac. trans.

      isym =  1     identity                                     

 cryst.   s( 1) = (     1          0          0      )
                  (     0          1          0      )
                  (     0          0          1      )

 cart.    s( 1) = (  1.0000000  0.0000000  0.0000000 )
                  (  0.0000000  1.0000000  0.0000000 )
                  (  0.0000000  0.0000000  1.0000000 )


      isym =  2     inv. 180 deg rotation - cart. axis [0,0,1]   

 cryst.   s( 2) = (     1          0          0      )
                  (     0          1          0      )
                  (     0          0         -1      )

 cart.    s( 2) = (  1.0000000  0.0000000  0.0000000 )
                  (  0.0000000  1.0000000  0.0000000 )
                  (  0.0000000  0.0000000 -1.0000000 )


      isym =  3     180 deg rotation - cart. axis [0,1,0]        

 cryst.   s( 3) = (    -1          0          0      )
                  (     1          1          0      )
                  (     0          0         -1      )

 cart.    s( 3) = ( -1.0000000  0.0000000  0.0000000 )
                  (  0.0000000  1.0000000  0.0000000 )
                  (  0.0000000  0.0000000 -1.0000000 )


      isym =  4     inv. 180 deg rotation - cart. axis [1,0,0]   

 cryst.   s( 4) = (    -1          0          0      )
                  (     1          1          0      )
                  (     0          0          1      )

 cart.    s( 4) = ( -1.0000000  0.0000000  0.0000000 )
                  (  0.0000000  1.0000000  0.0000000 )
                  (  0.0000000  0.0000000  1.0000000 )


     G cutoff =  716.8618  (   7312 G-vectors)     FFT grid: ( 54, 54,375)
     G cutoff =  286.7447  (   1856 G-vectors)  smooth grid: ( 36, 36,240)
     number of k points=   342
                       cart. coord. in units 2pi/alat
        k(    1) = (   0.0000000   0.0000000   0.0000000), wk =   0.0061728
        k(    2) = (  -0.0000000  -0.1924500   0.0000000), wk =   0.0000000
        k(    3) = (   0.0000000   0.0641500   0.0000000), wk =   0.0061728
        k(    4) = (  -0.0000000  -0.1283000   0.0000000), wk =   0.0000000
        k(    5) = (   0.0000000   0.1283001   0.0000000), wk =   0.0061728
        k(    6) = (  -0.0000000  -0.0641499   0.0000000), wk =   0.0000000
        k(    7) = (   0.0000000   0.1924501   0.0000000), wk =   0.0061728
        k(    8) = (  -0.0000000   0.0000001   0.0000000), wk =   0.0000000
        k(    9) = (   0.0000000   0.2566001   0.0000000), wk =   0.0061728
        k(   10) = (  -0.0000000   0.0641501   0.0000000), wk =   0.0000000
        k(   11) = (   0.0000000   0.3207501   0.0000000), wk =   0.0061728
        k(   12) = (  -0.0000000   0.1283001   0.0000000), wk =   0.0000000
        k(   13) = (   0.0000000   0.3849002   0.0000000), wk =   0.0061728
        k(   14) = (  -0.0000000   0.1924502   0.0000000), wk =   0.0000000
        k(   15) = (   0.0000000   0.4490502   0.0000000), wk =   0.0061728
        k(   16) = (  -0.0000000   0.2566002   0.0000000), wk =   0.0000000
        k(   17) = (   0.0000000   0.5132002   0.0000000), wk =   0.0061728
        k(   18) = (  -0.0000000   0.3207502   0.0000000), wk =   0.0000000
        k(   19) = (   0.0000000  -0.5773503   0.0000000), wk =   0.0061728
        k(   20) = (  -0.0000000  -0.7698003   0.0000000), wk =   0.0000000
        k(   21) = (   0.0555556   0.0962250   0.0000000), wk =   0.0123457
        k(   22) = (   0.0555556  -0.0962250   0.0000000), wk =   0.0000000
        k(   23) = (   0.0555556   0.1603751   0.0000000), wk =   0.0123457
        k(   24) = (   0.0555556  -0.0320749   0.0000000), wk =   0.0000000
        k(   25) = (   0.0555556   0.2245251   0.0000000), wk =   0.0123457
        k(   26) = (   0.0555556   0.0320751   0.0000000), wk =   0.0000000
        k(   27) = (   0.0555556   0.2886751   0.0000000), wk =   0.0123457
        k(   28) = (   0.0555556   0.0962251   0.0000000), wk =   0.0000000
        k(   29) = (   0.0555556   0.3528252   0.0000000), wk =   0.0123457
        k(   30) = (   0.0555556   0.1603752   0.0000000), wk =   0.0000000
        k(   31) = (   0.0555556   0.4169752   0.0000000), wk =   0.0123457
        k(   32) = (   0.0555556   0.2245252   0.0000000), wk =   0.0000000
        k(   33) = (   0.0555556   0.4811252   0.0000000), wk =   0.0123457
        k(   34) = (   0.0555556   0.2886752   0.0000000), wk =   0.0000000
        k(   35) = (   0.0555556   0.5452753   0.0000000), wk =   0.0123457
        k(   36) = (   0.0555556   0.3528253   0.0000000), wk =   0.0000000
        k(   37) = (   0.1111111   0.1924501   0.0000000), wk =   0.0123457
        k(   38) = (   0.1111111   0.0000001   0.0000000), wk =   0.0000000
        k(   39) = (   0.1111111   0.2566001   0.0000000), wk =   0.0123457
        k(   40) = (   0.1111111   0.0641501   0.0000000), wk =   0.0000000
        k(   41) = (   0.1111111   0.3207501   0.0000000), wk =   0.0123457
        k(   42) = (   0.1111111   0.1283001   0.0000000), wk =   0.0000000
        k(   43) = (   0.1111111   0.3849002   0.0000000), wk =   0.0123457
        k(   44) = (   0.1111111   0.1924502   0.0000000), wk =   0.0000000
        k(   45) = (   0.1111111   0.4490502   0.0000000), wk =   0.0123457
        k(   46) = (   0.1111111   0.2566002   0.0000000), wk =   0.0000000
        k(   47) = (   0.1111111   0.5132002   0.0000000), wk =   0.0123457
        k(   48) = (   0.1111111   0.3207502   0.0000000), wk =   0.0000000
        k(   49) = (   0.1111111   0.5773503   0.0000000), wk =   0.0123457
        k(   50) = (   0.1111111   0.3849003   0.0000000), wk =   0.0000000
        k(   51) = (   0.1666667   0.2886751   0.0000000), wk =   0.0123457
        k(   52) = (   0.1666667   0.0962251   0.0000000), wk =   0.0000000
        k(   53) = (   0.1666667   0.3528252   0.0000000), wk =   0.0123457
        k(   54) = (   0.1666667   0.1603752   0.0000000), wk =   0.0000000
        k(   55) = (   0.1666667   0.4169752   0.0000000), wk =   0.0123457
        k(   56) = (   0.1666667   0.2245252   0.0000000), wk =   0.0000000
        k(   57) = (   0.1666667   0.4811252   0.0000000), wk =   0.0123457
        k(   58) = (   0.1666667   0.2886752   0.0000000), wk =   0.0000000
        k(   59) = (   0.1666667   0.5452753   0.0000000), wk =   0.0123457
        k(   60) = (   0.1666667   0.3528253   0.0000000), wk =   0.0000000
        k(   61) = (   0.2222222   0.3849002   0.0000000), wk =   0.0123457
        k(   62) = (   0.2222222   0.1924502   0.0000000), wk =   0.0000000
        k(   63) = (   0.2222222   0.4490502   0.0000000), wk =   0.0123457
        k(   64) = (   0.2222222   0.2566002   0.0000000), wk =   0.0000000
        k(   65) = (   0.2222222   0.5132002   0.0000000), wk =   0.0123457
        k(   66) = (   0.2222222   0.3207502   0.0000000), wk =   0.0000000
        k(   67) = (   0.2222222   0.5773503   0.0000000), wk =   0.0123457
        k(   68) = (   0.2222222   0.3849003   0.0000000), wk =   0.0000000
        k(   69) = (   0.2777778   0.4811252   0.0000000), wk =   0.0123457
        k(   70) = (   0.2777778   0.2886752   0.0000000), wk =   0.0000000
        k(   71) = (   0.2777778   0.5452753   0.0000000), wk =   0.0123457
        k(   72) = (   0.2777778   0.3528253   0.0000000), wk =   0.0000000
        k(   73) = (   0.3333333   0.5773503   0.0000000), wk =   0.0123457
        k(   74) = (   0.3333333   0.3849003   0.0000000), wk =   0.0000000
        k(   75) = (   0.0555556  -0.0320750   0.0000000), wk =   0.0123457
        k(   76) = (   0.0555556  -0.2245250   0.0000000), wk =   0.0000000
        k(   77) = (   0.0000000  -0.0641500   0.0000000), wk =   0.0061728
        k(   78) = (  -0.0000000  -0.2566000   0.0000000), wk =   0.0000000
        k(   79) = (  -0.0555556   0.0320750   0.0000000), wk =   0.0123457
        k(   80) = (  -0.0555556  -0.1603750   0.0000000), wk =   0.0000000
        k(   81) = (   0.1111111  -0.0641500   0.0000000), wk =   0.0123457
        k(   82) = (   0.1111111  -0.2566000   0.0000000), wk =   0.0000000
        k(   83) = (   0.0000000  -0.1283001   0.0000000), wk =   0.0061728
        k(   84) = (  -0.0000000  -0.3207501   0.0000000), wk =   0.0000000
        k(   85) = (  -0.1111111   0.0641500   0.0000000), wk =   0.0123457
        k(   86) = (  -0.1111111  -0.1283000   0.0000000), wk =   0.0000000
        k(   87) = (   0.1666667  -0.0962250   0.0000000), wk =   0.0123457
        k(   88) = (   0.1666667  -0.2886750   0.0000000), wk =   0.0000000
        k(   89) = (   0.0000000  -0.1924501   0.0000000), wk =   0.0061728
        k(   90) = (  -0.0000000  -0.3849001   0.0000000), wk =   0.0000000
        k(   91) = (  -0.1666667   0.0962250   0.0000000), wk =   0.0123457
        k(   92) = (  -0.1666667  -0.0962250   0.0000000), wk =   0.0000000
        k(   93) = (   0.2222222  -0.1283001   0.0000000), wk =   0.0123457
        k(   94) = (   0.2222222  -0.3207501   0.0000000), wk =   0.0000000
        k(   95) = (   0.0000000  -0.2566001   0.0000000), wk =   0.0061728
        k(   96) = (  -0.0000000  -0.4490501   0.0000000), wk =   0.0000000
        k(   97) = (  -0.2222222   0.1283001   0.0000000), wk =   0.0123457
        k(   98) = (  -0.2222222  -0.0641499   0.0000000), wk =   0.0000000
        k(   99) = (   0.2777778  -0.1603751   0.0000000), wk =   0.0123457
        k(  100) = (   0.2777778  -0.3528251   0.0000000), wk =   0.0000000
        k(  101) = (   0.0000000  -0.3207501   0.0000000), wk =   0.0061728
        k(  102) = (  -0.0000000  -0.5132001   0.0000000), wk =   0.0000000
        k(  103) = (  -0.2777778   0.1603751   0.0000000), wk =   0.0123457
        k(  104) = (  -0.2777778  -0.0320749   0.0000000), wk =   0.0000000
        k(  105) = (   0.3333333  -0.1924501   0.0000000), wk =   0.0123457
        k(  106) = (   0.3333333  -0.3849001   0.0000000), wk =   0.0000000
        k(  107) = (   0.0000000  -0.3849002   0.0000000), wk =   0.0061728
        k(  108) = (  -0.0000000  -0.5773502   0.0000000), wk =   0.0000000
        k(  109) = (  -0.3333333   0.1924501   0.0000000), wk =   0.0123457
        k(  110) = (  -0.3333333   0.0000001   0.0000000), wk =   0.0000000
        k(  111) = (   0.3888889  -0.2245251   0.0000000), wk =   0.0123457
        k(  112) = (   0.3888889  -0.4169751   0.0000000), wk =   0.0000000
        k(  113) = (   0.0000000  -0.4490502   0.0000000), wk =   0.0061728
        k(  114) = (  -0.0000000  -0.6415002   0.0000000), wk =   0.0000000
        k(  115) = (  -0.3888889   0.2245251   0.0000000), wk =   0.0123457
        k(  116) = (  -0.3888889   0.0320751   0.0000000), wk =   0.0000000
        k(  117) = (   0.4444444  -0.2566001   0.0000000), wk =   0.0123457
        k(  118) = (   0.4444444  -0.4490501   0.0000000), wk =   0.0000000
        k(  119) = (   0.0000000  -0.5132002   0.0000000), wk =   0.0061728
        k(  120) = (  -0.0000000  -0.7056502   0.0000000), wk =   0.0000000
        k(  121) = (  -0.4444444   0.2566001   0.0000000), wk =   0.0123457
        k(  122) = (  -0.4444444   0.0641501   0.0000000), wk =   0.0000000
        k(  123) = (  -0.5000000   0.2886751   0.0000000), wk =   0.0123457
        k(  124) = (  -0.5000000   0.0962251   0.0000000), wk =   0.0000000
        k(  125) = (   0.0555556  -0.0962250   0.0000000), wk =   0.0123457
        k(  126) = (   0.0555556  -0.2886750   0.0000000), wk =   0.0000000
        k(  127) = (  -0.1111111   0.0000000   0.0000000), wk =   0.0123457
        k(  128) = (  -0.1111111  -0.1924500   0.0000000), wk =   0.0000000
        k(  129) = (   0.1111111  -0.1283001   0.0000000), wk =   0.0123457
        k(  130) = (   0.1111111  -0.3207501   0.0000000), wk =   0.0000000
        k(  131) = (  -0.1666667  -0.0320750   0.0000000), wk =   0.0123457
        k(  132) = (  -0.1666667  -0.2245250   0.0000000), wk =   0.0000000
        k(  133) = (  -0.0555556  -0.1603751   0.0000000), wk =   0.0123457
        k(  134) = (  -0.0555556  -0.3528251   0.0000000), wk =   0.0000000
        k(  135) = (  -0.1111111   0.1283001   0.0000000), wk =   0.0123457
        k(  136) = (  -0.1111111  -0.0641499   0.0000000), wk =   0.0000000
        k(  137) = (   0.1666667   0.0320750   0.0000000), wk =   0.0123457
        k(  138) = (   0.1666667  -0.1603750   0.0000000), wk =   0.0000000
        k(  139) = (   0.1666667  -0.1603751   0.0000000), wk =   0.0123457
        k(  140) = (   0.1666667  -0.3528251   0.0000000), wk =   0.0000000
        k(  141) = (  -0.2222222  -0.0641500   0.0000000), wk =   0.0123457
        k(  142) = (  -0.2222222  -0.2566000   0.0000000), wk =   0.0000000
        k(  143) = (  -0.0555556  -0.2245251   0.0000000), wk =   0.0123457
        k(  144) = (  -0.0555556  -0.4169751   0.0000000), wk =   0.0000000
        k(  145) = (  -0.1666667   0.1603751   0.0000000), wk =   0.0123457
        k(  146) = (  -0.1666667  -0.0320749   0.0000000), wk =   0.0000000
        k(  147) = (   0.2222222   0.0641500   0.0000000), wk =   0.0123457
        k(  148) = (   0.2222222  -0.1283000   0.0000000), wk =   0.0000000
        k(  149) = (   0.2222222  -0.1924501   0.0000000), wk =   0.0123457
        k(  150) = (   0.2222222  -0.3849001   0.0000000), wk =   0.0000000
        k(  151) = (  -0.2777778  -0.0962250   0.0000000), wk =   0.0123457
        k(  152) = (  -0.2777778  -0.2886750   0.0000000), wk =   0.0000000
        k(  153) = (  -0.0555556  -0.2886751   0.0000000), wk =   0.0123457
        k(  154) = (  -0.0555556  -0.4811251   0.0000000), wk =   0.0000000
        k(  155) = (  -0.2222222   0.1924501   0.0000000), wk =   0.0123457
        k(  156) = (  -0.2222222   0.0000001   0.0000000), wk =   0.0000000
        k(  157) = (   0.2777778   0.0962250   0.0000000), wk =   0.0123457
        k(  158) = (   0.2777778  -0.0962250   0.0000000), wk =   0.0000000
        k(  159) = (   0.2777778  -0.2245251   0.0000000), wk =   0.0123457
        k(  160) = (   0.2777778  -0.4169751   0.0000000), wk =   0.0000000
        k(  161) = (  -0.3333333  -0.1283001   0.0000000), wk =   0.0123457
        k(  162) = (  -0.3333333  -0.3207501   0.0000000), wk =   0.0000000
        k(  163) = (  -0.0555556  -0.3528252   0.0000000), wk =   0.0123457
        k(  164) = (  -0.0555556  -0.5452752   0.0000000), wk =   0.0000000
        k(  165) = (  -0.2777778   0.2245251   0.0000000), wk =   0.0123457
        k(  166) = (  -0.2777778   0.0320751   0.0000000), wk =   0.0000000
        k(  167) = (   0.3333333   0.1283001   0.0000000), wk =   0.0123457
        k(  168) = (   0.3333333  -0.0641499   0.0000000), wk =   0.0000000
        k(  169) = (   0.3333333  -0.2566001   0.0000000), wk =   0.0123457
        k(  170) = (   0.3333333  -0.4490501   0.0000000), wk =   0.0000000
        k(  171) = (  -0.3888889  -0.1603751   0.0000000), wk =   0.0123457
        k(  172) = (  -0.3888889  -0.3528251   0.0000000), wk =   0.0000000
        k(  173) = (  -0.0555556  -0.4169752   0.0000000), wk =   0.0123457
        k(  174) = (  -0.0555556  -0.6094252   0.0000000), wk =   0.0000000
        k(  175) = (  -0.3333333   0.2566001   0.0000000), wk =   0.0123457
        k(  176) = (  -0.3333333   0.0641501   0.0000000), wk =   0.0000000
        k(  177) = (   0.3888889   0.1603751   0.0000000), wk =   0.0123457
        k(  178) = (   0.3888889  -0.0320749   0.0000000), wk =   0.0000000
        k(  179) = (   0.3888889  -0.2886751   0.0000000), wk =   0.0123457
        k(  180) = (   0.3888889  -0.4811251   0.0000000), wk =   0.0000000
        k(  181) = (  -0.4444444  -0.1924501   0.0000000), wk =   0.0123457
        k(  182) = (  -0.4444444  -0.3849001   0.0000000), wk =   0.0000000
        k(  183) = (  -0.0555556  -0.4811252   0.0000000), wk =   0.0123457
        k(  184) = (  -0.0555556  -0.6735752   0.0000000), wk =   0.0000000
        k(  185) = (  -0.3888889   0.2886751   0.0000000), wk =   0.0123457
        k(  186) = (  -0.3888889   0.0962251   0.0000000), wk =   0.0000000
        k(  187) = (   0.4444444   0.1924501   0.0000000), wk =   0.0123457
        k(  188) = (   0.4444444   0.0000001   0.0000000), wk =   0.0000000
        k(  189) = (   0.4444444  -0.3207501   0.0000000), wk =   0.0123457
        k(  190) = (   0.4444444  -0.5132001   0.0000000), wk =   0.0000000
        k(  191) = (  -0.5000000  -0.2245251   0.0000000), wk =   0.0123457
        k(  192) = (  -0.5000000  -0.4169751   0.0000000), wk =   0.0000000
        k(  193) = (  -0.0555556  -0.5452753   0.0000000), wk =   0.0123457
        k(  194) = (  -0.0555556  -0.7377253   0.0000000), wk =   0.0000000
        k(  195) = (  -0.4444444   0.3207501   0.0000000), wk =   0.0123457
        k(  196) = (  -0.4444444   0.1283001   0.0000000), wk =   0.0000000
        k(  197) = (   0.5000000   0.2245251   0.0000000), wk =   0.0123457
        k(  198) = (   0.5000000   0.0320751   0.0000000), wk =   0.0000000
        k(  199) = (   0.1111111  -0.1924501   0.0000000), wk =   0.0123457
        k(  200) = (   0.1111111  -0.3849001   0.0000000), wk =   0.0000000
        k(  201) = (  -0.2222222   0.0000000   0.0000000), wk =   0.0123457
        k(  202) = (  -0.2222222  -0.1924500   0.0000000), wk =   0.0000000
        k(  203) = (   0.1666667  -0.2245251   0.0000000), wk =   0.0123457
        k(  204) = (   0.1666667  -0.4169751   0.0000000), wk =   0.0000000
        k(  205) = (  -0.2777778  -0.0320750   0.0000000), wk =   0.0123457
        k(  206) = (  -0.2777778  -0.2245250   0.0000000), wk =   0.0000000
        k(  207) = (  -0.1111111  -0.2566001   0.0000000), wk =   0.0123457
        k(  208) = (  -0.1111111  -0.4490501   0.0000000), wk =   0.0000000
        k(  209) = (  -0.1666667   0.2245251   0.0000000), wk =   0.0123457
        k(  210) = (  -0.1666667   0.0320751   0.0000000), wk =   0.0000000
        k(  211) = (   0.2777778   0.0320750   0.0000000), wk =   0.0123457
        k(  212) = (   0.2777778  -0.1603750   0.0000000), wk =   0.0000000
        k(  213) = (   0.2222222  -0.2566001   0.0000000), wk =   0.0123457
        k(  214) = (   0.2222222  -0.4490501   0.0000000), wk =   0.0000000
        k(  215) = (  -0.3333333  -0.0641500   0.0000000), wk =   0.0123457
        k(  216) = (  -0.3333333  -0.2566000   0.0000000), wk =   0.0000000
        k(  217) = (  -0.1111111  -0.3207501   0.0000000), wk =   0.0123457
        k(  218) = (  -0.1111111  -0.5132001   0.0000000), wk =   0.0000000
        k(  219) = (  -0.2222222   0.2566001   0.0000000), wk =   0.0123457
        k(  220) = (  -0.2222222   0.0641501   0.0000000), wk =   0.0000000
        k(  221) = (   0.3333333   0.0641500   0.0000000), wk =   0.0123457
        k(  222) = (   0.3333333  -0.1283000   0.0000000), wk =   0.0000000
        k(  223) = (   0.2777778  -0.2886751   0.0000000), wk =   0.0123457
        k(  224) = (   0.2777778  -0.4811251   0.0000000), wk =   0.0000000
        k(  225) = (  -0.3888889  -0.0962250   0.0000000), wk =   0.0123457
        k(  226) = (  -0.3888889  -0.2886750   0.0000000), wk =   0.0000000
        k(  227) = (  -0.1111111  -0.3849002   0.0000000), wk =   0.0123457
        k(  228) = (  -0.1111111  -0.5773502   0.0000000), wk =   0.0000000
        k(  229) = (  -0.2777778   0.2886751   0.0000000), wk =   0.0123457
        k(  230) = (  -0.2777778   0.0962251   0.0000000), wk =   0.0000000
        k(  231) = (   0.3888889   0.0962250   0.0000000), wk =   0.0123457
        k(  232) = (   0.3888889  -0.0962250   0.0000000), wk =   0.0000000
        k(  233) = (   0.3333333  -0.3207501   0.0000000), wk =   0.0123457
        k(  234) = (   0.3333333  -0.5132001   0.0000000), wk =   0.0000000
        k(  235) = (  -0.4444444  -0.1283001   0.0000000), wk =   0.0123457
        k(  236) = (  -0.4444444  -0.3207501   0.0000000), wk =   0.0000000
        k(  237) = (  -0.1111111  -0.4490502   0.0000000), wk =   0.0123457
        k(  238) = (  -0.1111111  -0.6415002   0.0000000), wk =   0.0000000
        k(  239) = (  -0.3333333   0.3207501   0.0000000), wk =   0.0123457
        k(  240) = (  -0.3333333   0.1283001   0.0000000), wk =   0.0000000
        k(  241) = (   0.4444444   0.1283001   0.0000000), wk =   0.0123457
        k(  242) = (   0.4444444  -0.0641499   0.0000000), wk =   0.0000000
        k(  243) = (   0.3888889  -0.3528252   0.0000000), wk =   0.0123457
        k(  244) = (   0.3888889  -0.5452752   0.0000000), wk =   0.0000000
        k(  245) = (  -0.5000000  -0.1603751   0.0000000), wk =   0.0123457
        k(  246) = (  -0.5000000  -0.3528251   0.0000000), wk =   0.0000000
        k(  247) = (  -0.1111111  -0.5132002   0.0000000), wk =   0.0123457
        k(  248) = (  -0.1111111  -0.7056502   0.0000000), wk =   0.0000000
        k(  249) = (  -0.3888889   0.3528252   0.0000000), wk =   0.0123457
        k(  250) = (  -0.3888889   0.1603752   0.0000000), wk =   0.0000000
        k(  251) = (   0.5000000   0.1603751   0.0000000), wk =   0.0123457
        k(  252) = (   0.5000000  -0.0320749   0.0000000), wk =   0.0000000
        k(  253) = (   0.4444444  -0.3849002   0.0000000), wk =   0.0123457
        k(  254) = (   0.4444444  -0.5773502   0.0000000), wk =   0.0000000
        k(  255) = (  -0.5555556  -0.1924501   0.0000000), wk =   0.0123457
        k(  256) = (  -0.5555556  -0.3849001   0.0000000), wk =   0.0000000
        k(  257) = (   0.1666667  -0.2886751   0.0000000), wk =   0.0123457
        k(  258) = (   0.1666667  -0.4811251   0.0000000), wk =   0.0000000
        k(  259) = (  -0.3333333  -0.0000000   0.0000000), wk =   0.0123457
        k(  260) = (  -0.3333333  -0.1924500   0.0000000), wk =   0.0000000
        k(  261) = (   0.2222222  -0.3207501   0.0000000), wk =   0.0123457
        k(  262) = (   0.2222222  -0.5132001   0.0000000), wk =   0.0000000
        k(  263) = (  -0.3888889  -0.0320750   0.0000000), wk =   0.0123457
        k(  264) = (  -0.3888889  -0.2245250   0.0000000), wk =   0.0000000
        k(  265) = (  -0.1666667  -0.3528252   0.0000000), wk =   0.0123457
        k(  266) = (  -0.1666667  -0.5452752   0.0000000), wk =   0.0000000
        k(  267) = (  -0.2222222   0.3207501   0.0000000), wk =   0.0123457
        k(  268) = (  -0.2222222   0.1283001   0.0000000), wk =   0.0000000
        k(  269) = (   0.3888889   0.0320750   0.0000000), wk =   0.0123457
        k(  270) = (   0.3888889  -0.1603750   0.0000000), wk =   0.0000000
        k(  271) = (   0.2777778  -0.3528252   0.0000000), wk =   0.0123457
        k(  272) = (   0.2777778  -0.5452752   0.0000000), wk =   0.0000000
        k(  273) = (  -0.4444444  -0.0641500   0.0000000), wk =   0.0123457
        k(  274) = (  -0.4444444  -0.2566000   0.0000000), wk =   0.0000000
        k(  275) = (  -0.1666667  -0.4169752   0.0000000), wk =   0.0123457
        k(  276) = (  -0.1666667  -0.6094252   0.0000000), wk =   0.0000000
        k(  277) = (  -0.2777778   0.3528252   0.0000000), wk =   0.0123457
        k(  278) = (  -0.2777778   0.1603752   0.0000000), wk =   0.0000000
        k(  279) = (   0.4444444   0.0641500   0.0000000), wk =   0.0123457
        k(  280) = (   0.4444444  -0.1283000   0.0000000), wk =   0.0000000
        k(  281) = (   0.3333333  -0.3849002   0.0000000), wk =   0.0123457
        k(  282) = (   0.3333333  -0.5773502   0.0000000), wk =   0.0000000
        k(  283) = (  -0.5000000  -0.0962250   0.0000000), wk =   0.0123457
        k(  284) = (  -0.5000000  -0.2886750   0.0000000), wk =   0.0000000
        k(  285) = (  -0.1666667  -0.4811252   0.0000000), wk =   0.0123457
        k(  286) = (  -0.1666667  -0.6735752   0.0000000), wk =   0.0000000
        k(  287) = (  -0.3333333   0.3849002   0.0000000), wk =   0.0123457
        k(  288) = (  -0.3333333   0.1924502   0.0000000), wk =   0.0000000
        k(  289) = (   0.5000000   0.0962250   0.0000000), wk =   0.0123457
        k(  290) = (   0.5000000  -0.0962250   0.0000000), wk =   0.0000000
        k(  291) = (   0.3888889  -0.4169752   0.0000000), wk =   0.0123457
        k(  292) = (   0.3888889  -0.6094252   0.0000000), wk =   0.0000000
        k(  293) = (  -0.5555556  -0.1283001   0.0000000), wk =   0.0123457
        k(  294) = (  -0.5555556  -0.3207501   0.0000000), wk =   0.0000000
        k(  295) = (  -0.1666667  -0.5452753   0.0000000), wk =   0.0123457
        k(  296) = (  -0.1666667  -0.7377253   0.0000000), wk =   0.0000000
        k(  297) = (  -0.3888889   0.4169752   0.0000000), wk =   0.0123457
        k(  298) = (  -0.3888889   0.2245252   0.0000000), wk =   0.0000000
        k(  299) = (   0.5555556   0.1283001   0.0000000), wk =   0.0123457
        k(  300) = (   0.5555556  -0.0641499   0.0000000), wk =   0.0000000
        k(  301) = (   0.2222222  -0.3849002   0.0000000), wk =   0.0123457
        k(  302) = (   0.2222222  -0.5773502   0.0000000), wk =   0.0000000
        k(  303) = (  -0.4444444   0.0000000   0.0000000), wk =   0.0123457
        k(  304) = (  -0.4444444  -0.1924500   0.0000000), wk =   0.0000000
        k(  305) = (   0.2777778  -0.4169752   0.0000000), wk =   0.0123457
        k(  306) = (   0.2777778  -0.6094252   0.0000000), wk =   0.0000000
        k(  307) = (  -0.5000000  -0.0320750   0.0000000), wk =   0.0123457
        k(  308) = (  -0.5000000  -0.2245250   0.0000000), wk =   0.0000000
        k(  309) = (  -0.2222222  -0.4490502   0.0000000), wk =   0.0123457
        k(  310) = (  -0.2222222  -0.6415002   0.0000000), wk =   0.0000000
        k(  311) = (  -0.2777778   0.4169752   0.0000000), wk =   0.0123457
        k(  312) = (  -0.2777778   0.2245252   0.0000000), wk =   0.0000000
        k(  313) = (   0.5000000   0.0320750   0.0000000), wk =   0.0123457
        k(  314) = (   0.5000000  -0.1603750   0.0000000), wk =   0.0000000
        k(  315) = (   0.3333333  -0.4490502   0.0000000), wk =   0.0123457
        k(  316) = (   0.3333333  -0.6415002   0.0000000), wk =   0.0000000
        k(  317) = (  -0.5555556  -0.0641500   0.0000000), wk =   0.0123457
        k(  318) = (  -0.5555556  -0.2566000   0.0000000), wk =   0.0000000
        k(  319) = (  -0.2222222  -0.5132002   0.0000000), wk =   0.0123457
        k(  320) = (  -0.2222222  -0.7056502   0.0000000), wk =   0.0000000
        k(  321) = (  -0.3333333   0.4490502   0.0000000), wk =   0.0123457
        k(  322) = (  -0.3333333   0.2566002   0.0000000), wk =   0.0000000
        k(  323) = (   0.5555556   0.0641500   0.0000000), wk =   0.0123457
        k(  324) = (   0.5555556  -0.1283000   0.0000000), wk =   0.0000000
        k(  325) = (   0.3888889  -0.4811252   0.0000000), wk =   0.0123457
        k(  326) = (   0.3888889  -0.6735752   0.0000000), wk =   0.0000000
        k(  327) = (  -0.6111111  -0.0962250   0.0000000), wk =   0.0123457
        k(  328) = (  -0.6111111  -0.2886750   0.0000000), wk =   0.0000000
        k(  329) = (   0.2777778  -0.4811252   0.0000000), wk =   0.0123457
        k(  330) = (   0.2777778  -0.6735752   0.0000000), wk =   0.0000000
        k(  331) = (  -0.5555556  -0.0000000   0.0000000), wk =   0.0123457
        k(  332) = (  -0.5555556  -0.1924500   0.0000000), wk =   0.0000000
        k(  333) = (   0.3333333  -0.5132002   0.0000000), wk =   0.0123457
        k(  334) = (   0.3333333  -0.7056502   0.0000000), wk =   0.0000000
        k(  335) = (  -0.6111111  -0.0320750   0.0000000), wk =   0.0123457
        k(  336) = (  -0.6111111  -0.2245250   0.0000000), wk =   0.0000000
        k(  337) = (  -0.2777778  -0.5452753   0.0000000), wk =   0.0123457
        k(  338) = (  -0.2777778  -0.7377253   0.0000000), wk =   0.0000000
        k(  339) = (  -0.3333333   0.5132002   0.0000000), wk =   0.0123457
        k(  340) = (  -0.3333333   0.3207502   0.0000000), wk =   0.0000000
        k(  341) = (   0.6111111   0.0320750   0.0000000), wk =   0.0123457
        k(  342) = (   0.6111111  -0.1603750   0.0000000), wk =   0.0000000

                       cryst. coord.
        k(    1) = (   0.0000000   0.0000000   0.0000000), wk =   0.0061728
        k(    2) = (  -0.0000000  -0.1666666   0.0000000), wk =   0.0000000
        k(    3) = (   0.0000000   0.0555556   0.0000000), wk =   0.0061728
        k(    4) = (  -0.0000000  -0.1111110   0.0000000), wk =   0.0000000
        k(    5) = (   0.0000000   0.1111111   0.0000000), wk =   0.0061728
        k(    6) = (  -0.0000000  -0.0555555   0.0000000), wk =   0.0000000
        k(    7) = (   0.0000000   0.1666667   0.0000000), wk =   0.0061728
        k(    8) = (  -0.0000000   0.0000001   0.0000000), wk =   0.0000000
        k(    9) = (   0.0000000   0.2222222   0.0000000), wk =   0.0061728
        k(   10) = (  -0.0000000   0.0555556   0.0000000), wk =   0.0000000
        k(   11) = (   0.0000000   0.2777778   0.0000000), wk =   0.0061728
        k(   12) = (  -0.0000000   0.1111112   0.0000000), wk =   0.0000000
        k(   13) = (   0.0000000   0.3333333   0.0000000), wk =   0.0061728
        k(   14) = (  -0.0000000   0.1666667   0.0000000), wk =   0.0000000
        k(   15) = (   0.0000000   0.3888889   0.0000000), wk =   0.0061728
        k(   16) = (  -0.0000000   0.2222223   0.0000000), wk =   0.0000000
        k(   17) = (   0.0000000   0.4444444   0.0000000), wk =   0.0061728
        k(   18) = (  -0.0000000   0.2777779   0.0000000), wk =   0.0000000
        k(   19) = (   0.0000000  -0.5000000   0.0000000), wk =   0.0061728
        k(   20) = (  -0.0000000  -0.6666666   0.0000000), wk =   0.0000000
        k(   21) = (   0.0555556   0.0555556   0.0000000), wk =   0.0123457
        k(   22) = (   0.0555556  -0.1111110   0.0000000), wk =   0.0000000
        k(   23) = (   0.0555556   0.1111111   0.0000000), wk =   0.0123457
        k(   24) = (   0.0555556  -0.0555555   0.0000000), wk =   0.0000000
        k(   25) = (   0.0555556   0.1666667   0.0000000), wk =   0.0123457
        k(   26) = (   0.0555556   0.0000001   0.0000000), wk =   0.0000000
        k(   27) = (   0.0555556   0.2222222   0.0000000), wk =   0.0123457
        k(   28) = (   0.0555556   0.0555556   0.0000000), wk =   0.0000000
        k(   29) = (   0.0555556   0.2777778   0.0000000), wk =   0.0123457
        k(   30) = (   0.0555556   0.1111112   0.0000000), wk =   0.0000000
        k(   31) = (   0.0555556   0.3333333   0.0000000), wk =   0.0123457
        k(   32) = (   0.0555556   0.1666667   0.0000000), wk =   0.0000000
        k(   33) = (   0.0555556   0.3888889   0.0000000), wk =   0.0123457
        k(   34) = (   0.0555556   0.2222223   0.0000000), wk =   0.0000000
        k(   35) = (   0.0555556   0.4444444   0.0000000), wk =   0.0123457
        k(   36) = (   0.0555556   0.2777779   0.0000000), wk =   0.0000000
        k(   37) = (   0.1111111   0.1111111   0.0000000), wk =   0.0123457
        k(   38) = (   0.1111111  -0.0555555   0.0000000), wk =   0.0000000
        k(   39) = (   0.1111111   0.1666667   0.0000000), wk =   0.0123457
        k(   40) = (   0.1111111   0.0000001   0.0000000), wk =   0.0000000
        k(   41) = (   0.1111111   0.2222222   0.0000000), wk =   0.0123457
        k(   42) = (   0.1111111   0.0555556   0.0000000), wk =   0.0000000
        k(   43) = (   0.1111111   0.2777778   0.0000000), wk =   0.0123457
        k(   44) = (   0.1111111   0.1111112   0.0000000), wk =   0.0000000
        k(   45) = (   0.1111111   0.3333333   0.0000000), wk =   0.0123457
        k(   46) = (   0.1111111   0.1666667   0.0000000), wk =   0.0000000
        k(   47) = (   0.1111111   0.3888889   0.0000000), wk =   0.0123457
        k(   48) = (   0.1111111   0.2222223   0.0000000), wk =   0.0000000
        k(   49) = (   0.1111111   0.4444444   0.0000000), wk =   0.0123457
        k(   50) = (   0.1111111   0.2777779   0.0000000), wk =   0.0000000
        k(   51) = (   0.1666667   0.1666667   0.0000000), wk =   0.0123457
        k(   52) = (   0.1666667   0.0000001   0.0000000), wk =   0.0000000
        k(   53) = (   0.1666667   0.2222222   0.0000000), wk =   0.0123457
        k(   54) = (   0.1666667   0.0555556   0.0000000), wk =   0.0000000
        k(   55) = (   0.1666667   0.2777778   0.0000000), wk =   0.0123457
        k(   56) = (   0.1666667   0.1111112   0.0000000), wk =   0.0000000
        k(   57) = (   0.1666667   0.3333333   0.0000000), wk =   0.0123457
        k(   58) = (   0.1666667   0.1666667   0.0000000), wk =   0.0000000
        k(   59) = (   0.1666667   0.3888889   0.0000000), wk =   0.0123457
        k(   60) = (   0.1666667   0.2222223   0.0000000), wk =   0.0000000
        k(   61) = (   0.2222222   0.2222222   0.0000000), wk =   0.0123457
        k(   62) = (   0.2222222   0.0555556   0.0000000), wk =   0.0000000
        k(   63) = (   0.2222222   0.2777778   0.0000000), wk =   0.0123457
        k(   64) = (   0.2222222   0.1111112   0.0000000), wk =   0.0000000
        k(   65) = (   0.2222222   0.3333333   0.0000000), wk =   0.0123457
        k(   66) = (   0.2222222   0.1666667   0.0000000), wk =   0.0000000
        k(   67) = (   0.2222222   0.3888889   0.0000000), wk =   0.0123457
        k(   68) = (   0.2222222   0.2222223   0.0000000), wk =   0.0000000
        k(   69) = (   0.2777778   0.2777778   0.0000000), wk =   0.0123457
        k(   70) = (   0.2777778   0.1111112   0.0000000), wk =   0.0000000
        k(   71) = (   0.2777778   0.3333333   0.0000000), wk =   0.0123457
        k(   72) = (   0.2777778   0.1666667   0.0000000), wk =   0.0000000
        k(   73) = (   0.3333333   0.3333333   0.0000000), wk =   0.0123457
        k(   74) = (   0.3333333   0.1666667   0.0000000), wk =   0.0000000
        k(   75) = (   0.0555556  -0.0555556   0.0000000), wk =   0.0123457
        k(   76) = (   0.0555556  -0.2222221   0.0000000), wk =   0.0000000
        k(   77) = (   0.0000000  -0.0555556   0.0000000), wk =   0.0061728
        k(   78) = (  -0.0000000  -0.2222221   0.0000000), wk =   0.0000000
        k(   79) = (  -0.0555556   0.0555556   0.0000000), wk =   0.0123457
        k(   80) = (  -0.0555556  -0.1111110   0.0000000), wk =   0.0000000
        k(   81) = (   0.1111111  -0.1111111   0.0000000), wk =   0.0123457
        k(   82) = (   0.1111111  -0.2777777   0.0000000), wk =   0.0000000
        k(   83) = (   0.0000000  -0.1111111   0.0000000), wk =   0.0061728
        k(   84) = (  -0.0000000  -0.2777777   0.0000000), wk =   0.0000000
        k(   85) = (  -0.1111111   0.1111111   0.0000000), wk =   0.0123457
        k(   86) = (  -0.1111111  -0.0555555   0.0000000), wk =   0.0000000
        k(   87) = (   0.1666667  -0.1666667   0.0000000), wk =   0.0123457
        k(   88) = (   0.1666667  -0.3333333   0.0000000), wk =   0.0000000
        k(   89) = (   0.0000000  -0.1666667   0.0000000), wk =   0.0061728
        k(   90) = (  -0.0000000  -0.3333333   0.0000000), wk =   0.0000000
        k(   91) = (  -0.1666667   0.1666667   0.0000000), wk =   0.0123457
        k(   92) = (  -0.1666667   0.0000001   0.0000000), wk =   0.0000000
        k(   93) = (   0.2222222  -0.2222222   0.0000000), wk =   0.0123457
        k(   94) = (   0.2222222  -0.3888888   0.0000000), wk =   0.0000000
        k(   95) = (   0.0000000  -0.2222222   0.0000000), wk =   0.0061728
        k(   96) = (  -0.0000000  -0.3888888   0.0000000), wk =   0.0000000
        k(   97) = (  -0.2222222   0.2222222   0.0000000), wk =   0.0123457
        k(   98) = (  -0.2222222   0.0555556   0.0000000), wk =   0.0000000
        k(   99) = (   0.2777778  -0.2777778   0.0000000), wk =   0.0123457
        k(  100) = (   0.2777778  -0.4444444   0.0000000), wk =   0.0000000
        k(  101) = (   0.0000000  -0.2777778   0.0000000), wk =   0.0061728
        k(  102) = (  -0.0000000  -0.4444444   0.0000000), wk =   0.0000000
        k(  103) = (  -0.2777778   0.2777778   0.0000000), wk =   0.0123457
        k(  104) = (  -0.2777778   0.1111112   0.0000000), wk =   0.0000000
        k(  105) = (   0.3333333  -0.3333333   0.0000000), wk =   0.0123457
        k(  106) = (   0.3333333  -0.4999999   0.0000000), wk =   0.0000000
        k(  107) = (   0.0000000  -0.3333333   0.0000000), wk =   0.0061728
        k(  108) = (  -0.0000000  -0.4999999   0.0000000), wk =   0.0000000
        k(  109) = (  -0.3333333   0.3333333   0.0000000), wk =   0.0123457
        k(  110) = (  -0.3333333   0.1666667   0.0000000), wk =   0.0000000
        k(  111) = (   0.3888889  -0.3888889   0.0000000), wk =   0.0123457
        k(  112) = (   0.3888889  -0.5555555   0.0000000), wk =   0.0000000
        k(  113) = (   0.0000000  -0.3888889   0.0000000), wk =   0.0061728
        k(  114) = (  -0.0000000  -0.5555555   0.0000000), wk =   0.0000000
        k(  115) = (  -0.3888889   0.3888889   0.0000000), wk =   0.0123457
        k(  116) = (  -0.3888889   0.2222223   0.0000000), wk =   0.0000000
        k(  117) = (   0.4444444  -0.4444444   0.0000000), wk =   0.0123457
        k(  118) = (   0.4444444  -0.6111110   0.0000000), wk =   0.0000000
        k(  119) = (   0.0000000  -0.4444444   0.0000000), wk =   0.0061728
        k(  120) = (  -0.0000000  -0.6111110   0.0000000), wk =   0.0000000
        k(  121) = (  -0.4444444   0.4444444   0.0000000), wk =   0.0123457
        k(  122) = (  -0.4444444   0.2777779   0.0000000), wk =   0.0000000
        k(  123) = (  -0.5000000   0.5000000   0.0000000), wk =   0.0123457
        k(  124) = (  -0.5000000   0.3333334   0.0000000), wk =   0.0000000
        k(  125) = (   0.0555556  -0.1111111   0.0000000), wk =   0.0123457
        k(  126) = (   0.0555556  -0.2777777   0.0000000), wk =   0.0000000
        k(  127) = (  -0.1111111   0.0555556   0.0000000), wk =   0.0123457
        k(  128) = (  -0.1111111  -0.1111110   0.0000000), wk =   0.0000000
        k(  129) = (   0.1111111  -0.1666667   0.0000000), wk =   0.0123457
        k(  130) = (   0.1111111  -0.3333333   0.0000000), wk =   0.0000000
        k(  131) = (  -0.1666667   0.0555556   0.0000000), wk =   0.0123457
        k(  132) = (  -0.1666667  -0.1111110   0.0000000), wk =   0.0000000
        k(  133) = (  -0.0555556  -0.1111111   0.0000000), wk =   0.0123457
        k(  134) = (  -0.0555556  -0.2777777   0.0000000), wk =   0.0000000
        k(  135) = (  -0.1111111   0.1666667   0.0000000), wk =   0.0123457
        k(  136) = (  -0.1111111   0.0000001   0.0000000), wk =   0.0000000
        k(  137) = (   0.1666667  -0.0555556   0.0000000), wk =   0.0123457
        k(  138) = (   0.1666667  -0.2222221   0.0000000), wk =   0.0000000
        k(  139) = (   0.1666667  -0.2222222   0.0000000), wk =   0.0123457
        k(  140) = (   0.1666667  -0.3888888   0.0000000), wk =   0.0000000
        k(  141) = (  -0.2222222   0.0555556   0.0000000), wk =   0.0123457
        k(  142) = (  -0.2222222  -0.1111110   0.0000000), wk =   0.0000000
        k(  143) = (  -0.0555556  -0.1666667   0.0000000), wk =   0.0123457
        k(  144) = (  -0.0555556  -0.3333333   0.0000000), wk =   0.0000000
        k(  145) = (  -0.1666667   0.2222222   0.0000000), wk =   0.0123457
        k(  146) = (  -0.1666667   0.0555556   0.0000000), wk =   0.0000000
        k(  147) = (   0.2222222  -0.0555556   0.0000000), wk =   0.0123457
        k(  148) = (   0.2222222  -0.2222221   0.0000000), wk =   0.0000000
        k(  149) = (   0.2222222  -0.2777778   0.0000000), wk =   0.0123457
        k(  150) = (   0.2222222  -0.4444444   0.0000000), wk =   0.0000000
        k(  151) = (  -0.2777778   0.0555556   0.0000000), wk =   0.0123457
        k(  152) = (  -0.2777778  -0.1111110   0.0000000), wk =   0.0000000
        k(  153) = (  -0.0555556  -0.2222222   0.0000000), wk =   0.0123457
        k(  154) = (  -0.0555556  -0.3888888   0.0000000), wk =   0.0000000
        k(  155) = (  -0.2222222   0.2777778   0.0000000), wk =   0.0123457
        k(  156) = (  -0.2222222   0.1111112   0.0000000), wk =   0.0000000
        k(  157) = (   0.2777778  -0.0555556   0.0000000), wk =   0.0123457
        k(  158) = (   0.2777778  -0.2222221   0.0000000), wk =   0.0000000
        k(  159) = (   0.2777778  -0.3333333   0.0000000), wk =   0.0123457
        k(  160) = (   0.2777778  -0.4999999   0.0000000), wk =   0.0000000
        k(  161) = (  -0.3333333   0.0555556   0.0000000), wk =   0.0123457
        k(  162) = (  -0.3333333  -0.1111110   0.0000000), wk =   0.0000000
        k(  163) = (  -0.0555556  -0.2777778   0.0000000), wk =   0.0123457
        k(  164) = (  -0.0555556  -0.4444444   0.0000000), wk =   0.0000000
        k(  165) = (  -0.2777778   0.3333333   0.0000000), wk =   0.0123457
        k(  166) = (  -0.2777778   0.1666667   0.0000000), wk =   0.0000000
        k(  167) = (   0.3333333  -0.0555556   0.0000000), wk =   0.0123457
        k(  168) = (   0.3333333  -0.2222221   0.0000000), wk =   0.0000000
        k(  169) = (   0.3333333  -0.3888889   0.0000000), wk =   0.0123457
        k(  170) = (   0.3333333  -0.5555555   0.0000000), wk =   0.0000000
        k(  171) = (  -0.3888889   0.0555556   0.0000000), wk =   0.0123457
        k(  172) = (  -0.3888889  -0.1111110   0.0000000), wk =   0.0000000
        k(  173) = (  -0.0555556  -0.3333333   0.0000000), wk =   0.0123457
        k(  174) = (  -0.0555556  -0.4999999   0.0000000), wk =   0.0000000
        k(  175) = (  -0.3333333   0.3888889   0.0000000), wk =   0.0123457
        k(  176) = (  -0.3333333   0.2222223   0.0000000), wk =   0.0000000
        k(  177) = (   0.3888889  -0.0555556   0.0000000), wk =   0.0123457
        k(  178) = (   0.3888889  -0.2222221   0.0000000), wk =   0.0000000
        k(  179) = (   0.3888889  -0.4444444   0.0000000), wk =   0.0123457
        k(  180) = (   0.3888889  -0.6111110   0.0000000), wk =   0.0000000
        k(  181) = (  -0.4444444   0.0555556   0.0000000), wk =   0.0123457
        k(  182) = (  -0.4444444  -0.1111110   0.0000000), wk =   0.0000000
        k(  183) = (  -0.0555556  -0.3888889   0.0000000), wk =   0.0123457
        k(  184) = (  -0.0555556  -0.5555555   0.0000000), wk =   0.0000000
        k(  185) = (  -0.3888889   0.4444444   0.0000000), wk =   0.0123457
        k(  186) = (  -0.3888889   0.2777779   0.0000000), wk =   0.0000000
        k(  187) = (   0.4444444  -0.0555556   0.0000000), wk =   0.0123457
        k(  188) = (   0.4444444  -0.2222221   0.0000000), wk =   0.0000000
        k(  189) = (   0.4444444  -0.5000000   0.0000000), wk =   0.0123457
        k(  190) = (   0.4444444  -0.6666666   0.0000000), wk =   0.0000000
        k(  191) = (  -0.5000000   0.0555556   0.0000000), wk =   0.0123457
        k(  192) = (  -0.5000000  -0.1111110   0.0000000), wk =   0.0000000
        k(  193) = (  -0.0555556  -0.4444444   0.0000000), wk =   0.0123457
        k(  194) = (  -0.0555556  -0.6111110   0.0000000), wk =   0.0000000
        k(  195) = (  -0.4444444   0.5000000   0.0000000), wk =   0.0123457
        k(  196) = (  -0.4444444   0.3333334   0.0000000), wk =   0.0000000
        k(  197) = (   0.5000000  -0.0555556   0.0000000), wk =   0.0123457
        k(  198) = (   0.5000000  -0.2222221   0.0000000), wk =   0.0000000
        k(  199) = (   0.1111111  -0.2222222   0.0000000), wk =   0.0123457
        k(  200) = (   0.1111111  -0.3888888   0.0000000), wk =   0.0000000
        k(  201) = (  -0.2222222   0.1111111   0.0000000), wk =   0.0123457
        k(  202) = (  -0.2222222  -0.0555555   0.0000000), wk =   0.0000000
        k(  203) = (   0.1666667  -0.2777778   0.0000000), wk =   0.0123457
        k(  204) = (   0.1666667  -0.4444444   0.0000000), wk =   0.0000000
        k(  205) = (  -0.2777778   0.1111111   0.0000000), wk =   0.0123457
        k(  206) = (  -0.2777778  -0.0555555   0.0000000), wk =   0.0000000
        k(  207) = (  -0.1111111  -0.1666667   0.0000000), wk =   0.0123457
        k(  208) = (  -0.1111111  -0.3333333   0.0000000), wk =   0.0000000
        k(  209) = (  -0.1666667   0.2777778   0.0000000), wk =   0.0123457
        k(  210) = (  -0.1666667   0.1111112   0.0000000), wk =   0.0000000
        k(  211) = (   0.2777778  -0.1111111   0.0000000), wk =   0.0123457
        k(  212) = (   0.2777778  -0.2777777   0.0000000), wk =   0.0000000
        k(  213) = (   0.2222222  -0.3333333   0.0000000), wk =   0.0123457
        k(  214) = (   0.2222222  -0.4999999   0.0000000), wk =   0.0000000
        k(  215) = (  -0.3333333   0.1111111   0.0000000), wk =   0.0123457
        k(  216) = (  -0.3333333  -0.0555555   0.0000000), wk =   0.0000000
        k(  217) = (  -0.1111111  -0.2222222   0.0000000), wk =   0.0123457
        k(  218) = (  -0.1111111  -0.3888888   0.0000000), wk =   0.0000000
        k(  219) = (  -0.2222222   0.3333333   0.0000000), wk =   0.0123457
        k(  220) = (  -0.2222222   0.1666667   0.0000000), wk =   0.0000000
        k(  221) = (   0.3333333  -0.1111111   0.0000000), wk =   0.0123457
        k(  222) = (   0.3333333  -0.2777777   0.0000000), wk =   0.0000000
        k(  223) = (   0.2777778  -0.3888889   0.0000000), wk =   0.0123457
        k(  224) = (   0.2777778  -0.5555555   0.0000000), wk =   0.0000000
        k(  225) = (  -0.3888889   0.1111111   0.0000000), wk =   0.0123457
        k(  226) = (  -0.3888889  -0.0555555   0.0000000), wk =   0.0000000
        k(  227) = (  -0.1111111  -0.2777778   0.0000000), wk =   0.0123457
        k(  228) = (  -0.1111111  -0.4444444   0.0000000), wk =   0.0000000
        k(  229) = (  -0.2777778   0.3888889   0.0000000), wk =   0.0123457
        k(  230) = (  -0.2777778   0.2222223   0.0000000), wk =   0.0000000
        k(  231) = (   0.3888889  -0.1111111   0.0000000), wk =   0.0123457
        k(  232) = (   0.3888889  -0.2777777   0.0000000), wk =   0.0000000
        k(  233) = (   0.3333333  -0.4444444   0.0000000), wk =   0.0123457
        k(  234) = (   0.3333333  -0.6111110   0.0000000), wk =   0.0000000
        k(  235) = (  -0.4444444   0.1111111   0.0000000), wk =   0.0123457
        k(  236) = (  -0.4444444  -0.0555555   0.0000000), wk =   0.0000000
        k(  237) = (  -0.1111111  -0.3333333   0.0000000), wk =   0.0123457
        k(  238) = (  -0.1111111  -0.4999999   0.0000000), wk =   0.0000000
        k(  239) = (  -0.3333333   0.4444444   0.0000000), wk =   0.0123457
        k(  240) = (  -0.3333333   0.2777779   0.0000000), wk =   0.0000000
        k(  241) = (   0.4444444  -0.1111111   0.0000000), wk =   0.0123457
        k(  242) = (   0.4444444  -0.2777777   0.0000000), wk =   0.0000000
        k(  243) = (   0.3888889  -0.5000000   0.0000000), wk =   0.0123457
        k(  244) = (   0.3888889  -0.6666666   0.0000000), wk =   0.0000000
        k(  245) = (  -0.5000000   0.1111111   0.0000000), wk =   0.0123457
        k(  246) = (  -0.5000000  -0.0555555   0.0000000), wk =   0.0000000
        k(  247) = (  -0.1111111  -0.3888889   0.0000000), wk =   0.0123457
        k(  248) = (  -0.1111111  -0.5555555   0.0000000), wk =   0.0000000
        k(  249) = (  -0.3888889   0.5000000   0.0000000), wk =   0.0123457
        k(  250) = (  -0.3888889   0.3333334   0.0000000), wk =   0.0000000
        k(  251) = (   0.5000000  -0.1111111   0.0000000), wk =   0.0123457
        k(  252) = (   0.5000000  -0.2777777   0.0000000), wk =   0.0000000
        k(  253) = (   0.4444444  -0.5555556   0.0000000), wk =   0.0123457
        k(  254) = (   0.4444444  -0.7222221   0.0000000), wk =   0.0000000
        k(  255) = (  -0.5555556   0.1111111   0.0000000), wk =   0.0123457
        k(  256) = (  -0.5555556  -0.0555555   0.0000000), wk =   0.0000000
        k(  257) = (   0.1666667  -0.3333333   0.0000000), wk =   0.0123457
        k(  258) = (   0.1666667  -0.4999999   0.0000000), wk =   0.0000000
        k(  259) = (  -0.3333333   0.1666667   0.0000000), wk =   0.0123457
        k(  260) = (  -0.3333333   0.0000001   0.0000000), wk =   0.0000000
        k(  261) = (   0.2222222  -0.3888889   0.0000000), wk =   0.0123457
        k(  262) = (   0.2222222  -0.5555555   0.0000000), wk =   0.0000000
        k(  263) = (  -0.3888889   0.1666667   0.0000000), wk =   0.0123457
        k(  264) = (  -0.3888889   0.0000001   0.0000000), wk =   0.0000000
        k(  265) = (  -0.1666667  -0.2222222   0.0000000), wk =   0.0123457
        k(  266) = (  -0.1666667  -0.3888888   0.0000000), wk =   0.0000000
        k(  267) = (  -0.2222222   0.3888889   0.0000000), wk =   0.0123457
        k(  268) = (  -0.2222222   0.2222223   0.0000000), wk =   0.0000000
        k(  269) = (   0.3888889  -0.1666667   0.0000000), wk =   0.0123457
        k(  270) = (   0.3888889  -0.3333333   0.0000000), wk =   0.0000000
        k(  271) = (   0.2777778  -0.4444444   0.0000000), wk =   0.0123457
        k(  272) = (   0.2777778  -0.6111110   0.0000000), wk =   0.0000000
        k(  273) = (  -0.4444444   0.1666667   0.0000000), wk =   0.0123457
        k(  274) = (  -0.4444444   0.0000001   0.0000000), wk =   0.0000000
        k(  275) = (  -0.1666667  -0.2777778   0.0000000), wk =   0.0123457
        k(  276) = (  -0.1666667  -0.4444444   0.0000000), wk =   0.0000000
        k(  277) = (  -0.2777778   0.4444444   0.0000000), wk =   0.0123457
        k(  278) = (  -0.2777778   0.2777779   0.0000000), wk =   0.0000000
        k(  279) = (   0.4444444  -0.1666667   0.0000000), wk =   0.0123457
        k(  280) = (   0.4444444  -0.3333333   0.0000000), wk =   0.0000000
        k(  281) = (   0.3333333  -0.5000000   0.0000000), wk =   0.0123457
        k(  282) = (   0.3333333  -0.6666666   0.0000000), wk =   0.0000000
        k(  283) = (  -0.5000000   0.1666667   0.0000000), wk =   0.0123457
        k(  284) = (  -0.5000000   0.0000001   0.0000000), wk =   0.0000000
        k(  285) = (  -0.1666667  -0.3333333   0.0000000), wk =   0.0123457
        k(  286) = (  -0.1666667  -0.4999999   0.0000000), wk =   0.0000000
        k(  287) = (  -0.3333333   0.5000000   0.0000000), wk =   0.0123457
        k(  288) = (  -0.3333333   0.3333334   0.0000000), wk =   0.0000000
        k(  289) = (   0.5000000  -0.1666667   0.0000000), wk =   0.0123457
        k(  290) = (   0.5000000  -0.3333333   0.0000000), wk =   0.0000000
        k(  291) = (   0.3888889  -0.5555556   0.0000000), wk =   0.0123457
        k(  292) = (   0.3888889  -0.7222221   0.0000000), wk =   0.0000000
        k(  293) = (  -0.5555556   0.1666667   0.0000000), wk =   0.0123457
        k(  294) = (  -0.5555556   0.0000001   0.0000000), wk =   0.0000000
        k(  295) = (  -0.1666667  -0.3888889   0.0000000), wk =   0.0123457
        k(  296) = (  -0.1666667  -0.5555555   0.0000000), wk =   0.0000000
        k(  297) = (  -0.3888889   0.5555556   0.0000000), wk =   0.0123457
        k(  298) = (  -0.3888889   0.3888890   0.0000000), wk =   0.0000000
        k(  299) = (   0.5555556  -0.1666667   0.0000000), wk =   0.0123457
        k(  300) = (   0.5555556  -0.3333333   0.0000000), wk =   0.0000000
        k(  301) = (   0.2222222  -0.4444444   0.0000000), wk =   0.0123457
        k(  302) = (   0.2222222  -0.6111110   0.0000000), wk =   0.0000000
        k(  303) = (  -0.4444444   0.2222222   0.0000000), wk =   0.0123457
        k(  304) = (  -0.4444444   0.0555556   0.0000000), wk =   0.0000000
        k(  305) = (   0.2777778  -0.5000000   0.0000000), wk =   0.0123457
        k(  306) = (   0.2777778  -0.6666666   0.0000000), wk =   0.0000000
        k(  307) = (  -0.5000000   0.2222222   0.0000000), wk =   0.0123457
        k(  308) = (  -0.5000000   0.0555556   0.0000000), wk =   0.0000000
        k(  309) = (  -0.2222222  -0.2777778   0.0000000), wk =   0.0123457
        k(  310) = (  -0.2222222  -0.4444444   0.0000000), wk =   0.0000000
        k(  311) = (  -0.2777778   0.5000000   0.0000000), wk =   0.0123457
        k(  312) = (  -0.2777778   0.3333334   0.0000000), wk =   0.0000000
        k(  313) = (   0.5000000  -0.2222222   0.0000000), wk =   0.0123457
        k(  314) = (   0.5000000  -0.3888888   0.0000000), wk =   0.0000000
        k(  315) = (   0.3333333  -0.5555556   0.0000000), wk =   0.0123457
        k(  316) = (   0.3333333  -0.7222221   0.0000000), wk =   0.0000000
        k(  317) = (  -0.5555556   0.2222222   0.0000000), wk =   0.0123457
        k(  318) = (  -0.5555556   0.0555556   0.0000000), wk =   0.0000000
        k(  319) = (  -0.2222222  -0.3333333   0.0000000), wk =   0.0123457
        k(  320) = (  -0.2222222  -0.4999999   0.0000000), wk =   0.0000000
        k(  321) = (  -0.3333333   0.5555556   0.0000000), wk =   0.0123457
        k(  322) = (  -0.3333333   0.3888890   0.0000000), wk =   0.0000000
        k(  323) = (   0.5555556  -0.2222222   0.0000000), wk =   0.0123457
        k(  324) = (   0.5555556  -0.3888888   0.0000000), wk =   0.0000000
        k(  325) = (   0.3888889  -0.6111111   0.0000000), wk =   0.0123457
        k(  326) = (   0.3888889  -0.7777777   0.0000000), wk =   0.0000000
        k(  327) = (  -0.6111111   0.2222222   0.0000000), wk =   0.0123457
        k(  328) = (  -0.6111111   0.0555556   0.0000000), wk =   0.0000000
        k(  329) = (   0.2777778  -0.5555556   0.0000000), wk =   0.0123457
        k(  330) = (   0.2777778  -0.7222221   0.0000000), wk =   0.0000000
        k(  331) = (  -0.5555556   0.2777778   0.0000000), wk =   0.0123457
        k(  332) = (  -0.5555556   0.1111112   0.0000000), wk =   0.0000000
        k(  333) = (   0.3333333  -0.6111111   0.0000000), wk =   0.0123457
        k(  334) = (   0.3333333  -0.7777777   0.0000000), wk =   0.0000000
        k(  335) = (  -0.6111111   0.2777778   0.0000000), wk =   0.0123457
        k(  336) = (  -0.6111111   0.1111112   0.0000000), wk =   0.0000000
        k(  337) = (  -0.2777778  -0.3333333   0.0000000), wk =   0.0123457
        k(  338) = (  -0.2777778  -0.4999999   0.0000000), wk =   0.0000000
        k(  339) = (  -0.3333333   0.6111111   0.0000000), wk =   0.0123457
        k(  340) = (  -0.3333333   0.4444445   0.0000000), wk =   0.0000000
        k(  341) = (   0.6111111  -0.2777778   0.0000000), wk =   0.0123457
        k(  342) = (   0.6111111  -0.4444444   0.0000000), wk =   0.0000000

     PseudoPot. # 1 for Mo read from file:
     ../pseudo/Mo.pbesol.dojo.upf
     MD5 check sum: c40353276b9086539cda6b9e5a66907b
     Pseudo is Norm-conserving + core correction, Zval = 14.0
     Generated using ONCVPSP code by D. R. Hamann
     Using radial grid of 1640 points,  6 beta functions with: 
                l(1) =   0
                l(2) =   0
                l(3) =   1
                l(4) =   1
                l(5) =   2
                l(6) =   2

     PseudoPot. # 2 for S  read from file:
     ../pseudo/S.pbesol.dojo.upf
     MD5 check sum: 501737efeeef1fb1c631cda521d4e019
     Pseudo is Norm-conserving + core correction, Zval =  6.0
     Generated using ONCVPSP code by D. R. Hamann
     Using radial grid of 1146 points,  6 beta functions with: 
                l(1) =   0
                l(2) =   0
                l(3) =   1
                l(4) =   1
                l(5) =   2
                l(6) =   2

     point group C_2v (mm2) 
     there are  4 classes
     the character table:

       E     C2    s_v   s_v' 
A_1    1.00  1.00  1.00  1.00
A_2    1.00  1.00 -1.00 -1.00
B_1    1.00 -1.00  1.00 -1.00
B_2    1.00 -1.00 -1.00  1.00

     the symmetry operations in each class and the name of the first element:

     E        1
                                                                 
     C2       3
                                                                 
     s_v      2
                                                                 
     s_v'     4
                                                                 


     Atomic displacements:
     There are    9 irreducible representations

     Representation     1      1 modes -  Done
     Irreps are as follows:

                     mode #   1
                     (  -0.00000  -0.00000   ) 
                     (  -0.00000  -0.00000   ) 
                     (  -0.00000  -0.00000   ) 
                     (  -0.00000   0.00000   ) 
                     (  -0.50179   0.00000   ) 
                     (  -0.42209   0.26467   ) 
                     (  -0.00000   0.00000   ) 
                     (  -0.50179  -0.00000   ) 
                     (   0.42209  -0.26467   ) 

     Representation     2      1 modes -  Done
     Irreps are as follows:

                     mode #   2
                     (  -0.00000  -0.00000   ) 
                     (  -0.00000  -0.00000   ) 
                     (  -0.00000  -0.00000   ) 
                     (  -0.00000   0.00000   ) 
                     (  -0.49820   0.00000   ) 
                     (   0.42513  -0.26657   ) 
                     (  -0.00000   0.00000   ) 
                     (  -0.49820   0.00000   ) 
                     (  -0.42513   0.26657   ) 

     Representation     3      1 modes -  To be done
     Irreps are as follows:

                     mode #   3
                     (   0.00000  -0.00000   ) 
                     (  -1.00000   0.00000   ) 
                     (   0.00000  -0.00000   ) 
                     (   0.00000  -0.00000   ) 
                     (   0.00000  -0.00000   ) 
                     (   0.00000  -0.00000   ) 
                     (   0.00000  -0.00000   ) 
                     (   0.00000  -0.00000   ) 
                     (   0.00000  -0.00000   ) 

     Representation     4      1 modes -  To be done
     Irreps are as follows:

                     mode #   4
                     (  -0.00000  -0.00000   ) 
                     (  -0.00000  -0.00000   ) 
                     (  -0.00000  -0.00000   ) 
                     (  -0.70711  -0.00000   ) 
                     (  -0.00000  -0.00000   ) 
                     (  -0.00000   0.00000   ) 
                     (   0.70711   0.00000   ) 
                     (  -0.00000  -0.00000   ) 
                     (   0.00000  -0.00000   ) 

     Representation     5      1 modes -  To be done
     Irreps are as follows:

                     mode #   5
                     (  -0.00000  -0.00000   ) 
                     (  -0.00000  -0.00000   ) 
                     (  -0.00000  -0.00000   ) 
                     (  -0.70711   0.00000   ) 
                     (   0.00000   0.00000   ) 
                     (  -0.00000   0.00000   ) 
                     (  -0.70711  -0.00000   ) 
                     (   0.00000   0.00000   ) 
                     (   0.00000   0.00000   ) 

     Representation     6      1 modes -  To be done
     Irreps are as follows:

                     mode #   6
                     (  -1.00000  -0.00000   ) 
                     (  -0.00000  -0.00000   ) 
                     (  -0.00000  -0.00000   ) 
                     (  -0.00000  -0.00000   ) 
                     (  -0.00000  -0.00000   ) 
                     (  -0.00000  -0.00000   ) 
                     (  -0.00000  -0.00000   ) 
                     (  -0.00000  -0.00000   ) 
                     (  -0.00000  -0.00000   ) 

     Representation     7      1 modes -  To be done
     Irreps are as follows:

                     mode #   7
                     (  -0.00000   0.00000   ) 
                     (  -0.00000   0.00000   ) 
                     (  -0.00000   0.00000   ) 
                     (   0.00000   0.00000   ) 
                     (  -0.31120   0.00000   ) 
                     (   0.31003   0.55411   ) 
                     (   0.00000   0.00000   ) 
                     (   0.31120   0.00000   ) 
                     (   0.31003   0.55411   ) 

     Representation     8      1 modes -  To be done
     Irreps are as follows:

                     mode #   8
                     (  -0.00000  -0.00000   ) 
                     (  -0.00000  -0.00000   ) 
                     (  -1.00000  -0.00000   ) 
                     (  -0.00000  -0.00000   ) 
                     (  -0.00000  -0.00000   ) 
                     (  -0.00000  -0.00000   ) 
                     (  -0.00000  -0.00000   ) 
                     (  -0.00000  -0.00000   ) 
                     (  -0.00000  -0.00000   ) 

     Representation     9      1 modes -  To be done
     Irreps are as follows:

                     mode #   9
                     (  -0.00000  -0.00000   ) 
                     (  -0.00000  -0.00000   ) 
                     (  -0.00000  -0.00000   ) 
                     (  -0.00000   0.00000   ) 
                     (  -0.63495   0.00000   ) 
                     (  -0.15195  -0.27158   ) 
                     (  -0.00000   0.00000   ) 
                     (   0.63495   0.00000   ) 
                     (  -0.15195  -0.27158   ) 


     Message from routine init_vloc:
     Interpolation table for Vloc re-allocated
     PHONON       :      3.94s CPU      4.50s WALL



     Representation #   3 mode #   3

     Self-consistent Calculation

      iter #   5 total cpu time :    23.2 secs   av.it.:  12.7
      thresh= 1.978E-05 alpha_mix =  0.100 |ddv_scf|^2 =  1.555E-09

      iter #   6 total cpu time :    39.9 secs   av.it.:  17.4
      thresh= 3.944E-06 alpha_mix =  0.100 |ddv_scf|^2 =  9.058E-10

      iter #   7 total cpu time :    58.2 secs   av.it.:  19.6
      thresh= 3.010E-06 alpha_mix =  0.100 |ddv_scf|^2 =  4.124E-11

      iter #   8 total cpu time :    74.9 secs   av.it.:  17.6
      thresh= 6.422E-07 alpha_mix =  0.100 |ddv_scf|^2 =  2.702E-11

      iter #   9 total cpu time :    93.4 secs   av.it.:  19.7
      thresh= 5.198E-07 alpha_mix =  0.100 |ddv_scf|^2 =  2.347E-12

      iter #  10 total cpu time :   111.3 secs   av.it.:  19.0
      thresh= 1.532E-07 alpha_mix =  0.100 |ddv_scf|^2 =  1.174E-12

      iter #  11 total cpu time :   128.7 secs   av.it.:  18.4
      thresh= 1.083E-07 alpha_mix =  0.100 |ddv_scf|^2 =  5.699E-13

     End of self-consistent calculation

     Convergence has been achieved 


     Representation #   4 mode #   4

     Self-consistent Calculation

      iter #   1 total cpu time :   138.7 secs   av.it.:   8.7
      thresh= 1.000E-02 alpha_mix =  0.100 |ddv_scf|^2 =  7.795E-09

      iter #   2 total cpu time :   154.4 secs   av.it.:  16.1
      thresh= 8.829E-06 alpha_mix =  0.100 |ddv_scf|^2 =  5.299E-09

      iter #   3 total cpu time :   172.2 secs   av.it.:  18.6
      thresh= 7.280E-06 alpha_mix =  0.100 |ddv_scf|^2 =  3.702E-10

      iter #   4 total cpu time :   190.0 secs   av.it.:  18.8
      thresh= 1.924E-06 alpha_mix =  0.100 |ddv_scf|^2 =  8.441E-11

      iter #   5 total cpu time :   208.0 secs   av.it.:  19.0
      thresh= 9.187E-07 alpha_mix =  0.100 |ddv_scf|^2 =  4.647E-13

     End of self-consistent calculation

     Convergence has been achieved 


     Representation #   5 mode #   5

     Self-consistent Calculation

      iter #   1 total cpu time :   218.1 secs   av.it.:   8.8
      thresh= 1.000E-02 alpha_mix =  0.100 |ddv_scf|^2 =  1.062E-08

      iter #   2 total cpu time :   233.9 secs   av.it.:  16.5
      thresh= 1.031E-05 alpha_mix =  0.100 |ddv_scf|^2 =  6.853E-09

      iter #   3 total cpu time :   251.4 secs   av.it.:  18.5
      thresh= 8.279E-06 alpha_mix =  0.100 |ddv_scf|^2 =  1.231E-09

      iter #   4 total cpu time :   269.7 secs   av.it.:  19.4
      thresh= 3.508E-06 alpha_mix =  0.100 |ddv_scf|^2 =  1.004E-10

      iter #   5 total cpu time :   288.0 secs   av.it.:  19.5
      thresh= 1.002E-06 alpha_mix =  0.100 |ddv_scf|^2 =  3.771E-12

      iter #   6 total cpu time :   305.6 secs   av.it.:  18.6
      thresh= 1.942E-07 alpha_mix =  0.100 |ddv_scf|^2 =  1.900E-12

      iter #   7 total cpu time :   324.4 secs   av.it.:  19.6
      thresh= 1.379E-07 alpha_mix =  0.100 |ddv_scf|^2 =  3.783E-14

     End of self-consistent calculation

     Convergence has been achieved 


     Representation #   6 mode #   6

     Self-consistent Calculation

      iter #   1 total cpu time :   335.9 secs   av.it.:  10.7
      thresh= 1.000E-02 alpha_mix =  0.100 |ddv_scf|^2 =  1.953E-07

      iter #   2 total cpu time :   351.5 secs   av.it.:  16.1
      thresh= 4.419E-05 alpha_mix =  0.100 |ddv_scf|^2 =  1.278E-07

      iter #   3 total cpu time :   369.4 secs   av.it.:  18.8
      thresh= 3.575E-05 alpha_mix =  0.100 |ddv_scf|^2 =  8.573E-10

      iter #   4 total cpu time :   386.3 secs   av.it.:  17.7
      thresh= 2.928E-06 alpha_mix =  0.100 |ddv_scf|^2 =  5.306E-10

      iter #   5 total cpu time :   404.9 secs   av.it.:  19.7
      thresh= 2.303E-06 alpha_mix =  0.100 |ddv_scf|^2 =  2.885E-11

      iter #   6 total cpu time :   423.5 secs   av.it.:  19.7
      thresh= 5.372E-07 alpha_mix =  0.100 |ddv_scf|^2 =  9.929E-13

     End of self-consistent calculation

     Convergence has been achieved 


     Representation #   7 mode #   7

     Self-consistent Calculation

      iter #   1 total cpu time :   433.9 secs   av.it.:   9.1
      thresh= 1.000E-02 alpha_mix =  0.100 |ddv_scf|^2 =  3.892E-07

      iter #   2 total cpu time :   448.5 secs   av.it.:  14.8
      thresh= 6.239E-05 alpha_mix =  0.100 |ddv_scf|^2 =  1.192E-07

      iter #   3 total cpu time :   464.3 secs   av.it.:  16.3
      thresh= 3.452E-05 alpha_mix =  0.100 |ddv_scf|^2 =  1.494E-08

      iter #   4 total cpu time :   481.7 secs   av.it.:  18.3
      thresh= 1.222E-05 alpha_mix =  0.100 |ddv_scf|^2 =  3.211E-10

      iter #   5 total cpu time :   498.3 secs   av.it.:  17.4
      thresh= 1.792E-06 alpha_mix =  0.100 |ddv_scf|^2 =  1.970E-10

      iter #   6 total cpu time :   516.4 secs   av.it.:  19.3
      thresh= 1.404E-06 alpha_mix =  0.100 |ddv_scf|^2 =  3.204E-11

      iter #   7 total cpu time :   532.7 secs   av.it.:  16.9
      thresh= 5.660E-07 alpha_mix =  0.100 |ddv_scf|^2 =  9.443E-12

      iter #   8 total cpu time :   550.2 secs   av.it.:  18.6
      thresh= 3.073E-07 alpha_mix =  0.100 |ddv_scf|^2 =  2.823E-13

     End of self-consistent calculation

     Convergence has been achieved 


     Representation #   8 mode #   8

     Self-consistent Calculation

      iter #   1 total cpu time :   562.6 secs   av.it.:  11.8
      thresh= 1.000E-02 alpha_mix =  0.100 |ddv_scf|^2 =  1.921E-05

      iter #   2 total cpu time :   577.5 secs   av.it.:  15.3
      thresh= 4.382E-04 alpha_mix =  0.100 |ddv_scf|^2 =  2.884E-06

      iter #   3 total cpu time :   593.7 secs   av.it.:  16.6
      thresh= 1.698E-04 alpha_mix =  0.100 |ddv_scf|^2 =  8.692E-08

      iter #   4 total cpu time :   611.5 secs   av.it.:  18.8
      thresh= 2.948E-05 alpha_mix =  0.100 |ddv_scf|^2 =  1.930E-09

      iter #   5 total cpu time :   628.7 secs   av.it.:  18.1
      thresh= 4.394E-06 alpha_mix =  0.100 |ddv_scf|^2 =  9.442E-10

      iter #   6 total cpu time :   646.9 secs   av.it.:  19.6
      thresh= 3.073E-06 alpha_mix =  0.100 |ddv_scf|^2 =  3.690E-11

      iter #   7 total cpu time :   663.9 secs   av.it.:  17.8
      thresh= 6.074E-07 alpha_mix =  0.100 |ddv_scf|^2 =  1.970E-11

      iter #   8 total cpu time :   682.2 secs   av.it.:  19.5
      thresh= 4.438E-07 alpha_mix =  0.100 |ddv_scf|^2 =  1.897E-12

      iter #   9 total cpu time :   699.8 secs   av.it.:  18.7
      thresh= 1.377E-07 alpha_mix =  0.100 |ddv_scf|^2 =  6.753E-13

     End of self-consistent calculation

     Convergence has been achieved 


     Representation #   9 mode #   9

     Self-consistent Calculation

      iter #   1 total cpu time :   710.6 secs   av.it.:   9.8
      thresh= 1.000E-02 alpha_mix =  0.100 |ddv_scf|^2 =  2.114E-06

      iter #   2 total cpu time :   725.2 secs   av.it.:  14.8
      thresh= 1.454E-04 alpha_mix =  0.100 |ddv_scf|^2 =  3.860E-07

      iter #   3 total cpu time :   740.8 secs   av.it.:  16.0
      thresh= 6.213E-05 alpha_mix =  0.100 |ddv_scf|^2 =  8.375E-09

      iter #   4 total cpu time :   757.2 secs   av.it.:  17.2
      thresh= 9.151E-06 alpha_mix =  0.100 |ddv_scf|^2 =  3.318E-09

      iter #   5 total cpu time :   775.0 secs   av.it.:  18.8
      thresh= 5.760E-06 alpha_mix =  0.100 |ddv_scf|^2 =  2.017E-10

      iter #   6 total cpu time :   792.4 secs   av.it.:  18.3
      thresh= 1.420E-06 alpha_mix =  0.100 |ddv_scf|^2 =  3.029E-11

      iter #   7 total cpu time :   809.8 secs   av.it.:  18.4
      thresh= 5.503E-07 alpha_mix =  0.100 |ddv_scf|^2 =  6.688E-12

      iter #   8 total cpu time :   827.6 secs   av.it.:  18.8
      thresh= 2.586E-07 alpha_mix =  0.100 |ddv_scf|^2 =  4.916E-13

     End of self-consistent calculation

     Convergence has been achieved 

     Number of q in the star =    3
     List of q in the star:
          1  -0.000000003  -0.192450000   0.000000000
          2  -0.166666587   0.096225003   0.000000000
          3   0.166666590   0.096224997  -0.000000000
     In addition there is the -q list: 
          1   0.000000003   0.192450000  -0.000000000
          2   0.166666587  -0.096225003  -0.000000000
          3  -0.166666590  -0.096224997   0.000000000

     Diagonalizing the dynamical matrix

     q = (   -0.000000003  -0.192450000   0.000000000 ) 

 **************************************************************************
     freq (    1) =      -1.478386 [THz] =     -49.313633 [cm-1]
     freq (    2) =      -0.127728 [THz] =      -4.260536 [cm-1]
     freq (    3) =       3.687226 [THz] =     122.992635 [cm-1]
     freq (    4) =       8.544602 [THz] =     285.017257 [cm-1]
     freq (    5) =       9.077765 [THz] =     302.801652 [cm-1]
     freq (    6) =      10.977350 [THz] =     366.164977 [cm-1]
     freq (    7) =      11.285988 [THz] =     376.460037 [cm-1]
     freq (    8) =      12.245478 [THz] =     408.465184 [cm-1]
     freq (    9) =      13.476833 [THz] =     449.538766 [cm-1]
 **************************************************************************

     Mode symmetry, C_2v (mm2)  point group:

     freq (   1-   1) =        -49.3  [cm-1]   --> B_2  D_4  S_4      
     freq (   2-   2) =         -4.3  [cm-1]   --> B_1  D_3  S_3      
     freq (   3-   3) =        123.0  [cm-1]   --> A_1  D_1  S_1      
     freq (   4-   4) =        285.0  [cm-1]   --> A_2  D_2  S_2      
     freq (   5-   5) =        302.8  [cm-1]   --> B_2  D_4  S_4      
     freq (   6-   6) =        366.2  [cm-1]   --> A_1  D_1  S_1      
     freq (   7-   7) =        376.5  [cm-1]   --> B_1  D_3  S_3      
     freq (   8-   8) =        408.5  [cm-1]   --> A_1  D_1  S_1      
     freq (   9-   9) =        449.5  [cm-1]   --> B_2  D_4  S_4      

     Calculation of q =   -0.0000000  -0.3849000   0.0000000

     Parallelization info
     --------------------
     sticks:   dense  smooth     PW     G-vecs:    dense   smooth      PW
     Min          30      12      3                 7300     1830     297
     Max          31      13      4                 7337     1861     342
     Sum        1945     769    241               468457   118307   20503

     Using Slab Decomposition


     Title: 
     default                                                                    


     bravais-lattice index     =            4
     lattice parameter (alat)  =       5.9477  a.u.
     unit-cell volume          =    1225.4506 (a.u.)^3
     number of atoms/cell      =            3
     number of atomic types    =            2
     number of electrons       =        26.00
     number of Kohn-Sham states=           13
     kinetic-energy cutoff     =      80.0000  Ry
     charge density cutoff     =     800.0000  Ry
     Exchange-correlation= PBESOL
                           (   1   4  10   8   0   0   0)

     celldm(1)=   5.947749  celldm(2)=   0.000000  celldm(3)=   6.725234
     celldm(4)=   0.000000  celldm(5)=   0.000000  celldm(6)=   0.000000

     crystal axes: (cart. coord. in units of alat)
               a(1) = (   1.000000   0.000000   0.000000 )  
               a(2) = (  -0.500000   0.866025   0.000000 )  
               a(3) = (   0.000000   0.000000   6.725234 )  

     reciprocal axes: (cart. coord. in units 2 pi/alat)
               b(1) = (  1.000000  0.577350 -0.000000 )  
               b(2) = (  0.000000  1.154701  0.000000 )  
               b(3) = (  0.000000 -0.000000  0.148694 )  


     PseudoPot. # 1 for Mo read from file:
     ../pseudo/Mo.pbesol.dojo.upf
     MD5 check sum: c40353276b9086539cda6b9e5a66907b
     Pseudo is Norm-conserving + core correction, Zval = 14.0
     Generated using ONCVPSP code by D. R. Hamann
     Using radial grid of 1640 points,  6 beta functions with: 
                l(1) =   0
                l(2) =   0
                l(3) =   1
                l(4) =   1
                l(5) =   2
                l(6) =   2

     PseudoPot. # 2 for S  read from file:
     ../pseudo/S.pbesol.dojo.upf
     MD5 check sum: 501737efeeef1fb1c631cda521d4e019
     Pseudo is Norm-conserving + core correction, Zval =  6.0
     Generated using ONCVPSP code by D. R. Hamann
     Using radial grid of 1146 points,  6 beta functions with: 
                l(1) =   0
                l(2) =   0
                l(3) =   1
                l(4) =   1
                l(5) =   2
                l(6) =   2

     atomic species   valence    mass     pseudopotential
     Mo               14.00    95.95000     Mo( 1.00)
     S                 6.00    32.06500     S ( 1.00)

     12 Sym. Ops. (no inversion) found


                                    s                        frac. trans.

      isym =  1     identity                                     

 cryst.   s( 1) = (     1          0          0      )
                  (     0          1          0      )
                  (     0          0          1      )

 cart.    s( 1) = (  1.0000000  0.0000000  0.0000000 )
                  (  0.0000000  1.0000000  0.0000000 )
                  (  0.0000000  0.0000000  1.0000000 )


      isym =  2     inv. 180 deg rotation - cart. axis [0,0,1]   

 cryst.   s( 2) = (     1          0          0      )
                  (     0          1          0      )
[...]
     Irreps are as follows:

                     mode #   4
                     (  -0.00000   0.00000   ) 
                     (  -0.00000   0.00000   ) 
                     (  -0.00000   0.00000   ) 
                     (   0.00000  -0.00000   ) 
                     (   0.00000   0.00000   ) 
                     (  -0.70711  -0.00000   ) 
                     (  -0.00000   0.00000   ) 
                     (  -0.00000  -0.00000   ) 
                     (   0.70711   0.00000   ) 

     Representation     5      1 modes -  To be done
     Irreps are as follows:

                     mode #   5
                     (  -0.70711  -0.00000   ) 
                     (  -0.00000   0.70711   ) 
                     (  -0.00000  -0.00000   ) 
                     (  -0.00000  -0.00000   ) 
                     (  -0.00000  -0.00000   ) 
                     (  -0.00000  -0.00000   ) 
                     (  -0.00000  -0.00000   ) 
                     (  -0.00000  -0.00000   ) 
                     (  -0.00000  -0.00000   ) 

     Representation     6      1 modes -  To be done
     Irreps are as follows:

                     mode #   6
                     (   0.00000  -0.00000   ) 
                     (   0.00000  -0.00000   ) 
                     (   0.00000  -0.00000   ) 
                     (  -0.50000  -0.00000   ) 
                     (   0.00000   0.50000   ) 
                     (  -0.00000   0.00000   ) 
                     (   0.50000  -0.00000   ) 
                     (   0.00000  -0.50000   ) 
                     (  -0.00000   0.00000   ) 

     Representation     7      1 modes -  To be done
     Irreps are as follows:

                     mode #   7
                     (  -0.00000  -0.00000   ) 
                     (  -0.00000  -0.00000   ) 
                     (  -1.00000  -0.00000   ) 
                     (  -0.00000  -0.00000   ) 
                     (  -0.00000  -0.00000   ) 
                     (  -0.00000  -0.00000   ) 
                     (  -0.00000  -0.00000   ) 
                     (  -0.00000  -0.00000   ) 
                     (  -0.00000  -0.00000   ) 

     Representation     8      1 modes -  To be done
     Irreps are as follows:

                     mode #   8
                     (   0.00000  -0.00000   ) 
                     (   0.00000  -0.00000   ) 
                     (   0.00000  -0.00000   ) 
                     (  -0.50000  -0.00000   ) 
                     (   0.00000  -0.50000   ) 
                     (  -0.00000  -0.00000   ) 
                     (   0.50000   0.00000   ) 
                     (  -0.00000   0.50000   ) 
                     (   0.00000  -0.00000   ) 

     Representation     9      1 modes -  To be done
     Irreps are as follows:

                     mode #   9
                     (  -0.00000  -0.00000   ) 
                     (  -0.00000  -0.00000   ) 
                     (  -0.00000  -0.00000   ) 
                     (   0.00000  -0.00000   ) 
                     (   0.00000   0.00000   ) 
                     (  -0.70711  -0.00000   ) 
                     (  -0.00000   0.00000   ) 
                     (  -0.00000  -0.00000   ) 
                     (  -0.70711  -0.00000   ) 



     Alpha used in Ewald sum =   2.8000
     PHONON       :      2h 6m CPU      2h11m WALL



     Representation #   1 mode #   1

     Self-consistent Calculation

      iter #   1 total cpu time :  7924.4 secs   av.it.:   9.8
      thresh= 1.000E-02 alpha_mix =  0.100 |ddv_scf|^2 =  1.664E-07

      iter #   2 total cpu time :  7935.1 secs   av.it.:  16.7
      thresh= 4.079E-05 alpha_mix =  0.100 |ddv_scf|^2 =  8.559E-08

      iter #   3 total cpu time :  7947.1 secs   av.it.:  18.9
      thresh= 2.926E-05 alpha_mix =  0.100 |ddv_scf|^2 =  1.220E-09

      iter #   4 total cpu time :  7958.3 secs   av.it.:  17.6
      thresh= 3.493E-06 alpha_mix =  0.100 |ddv_scf|^2 =  6.481E-10

      iter #   5 total cpu time :  7970.5 secs   av.it.:  19.6
      thresh= 2.546E-06 alpha_mix =  0.100 |ddv_scf|^2 =  4.927E-11

      iter #   6 total cpu time :  7982.7 secs   av.it.:  19.6
      thresh= 7.019E-07 alpha_mix =  0.100 |ddv_scf|^2 =  6.380E-12

      iter #   7 total cpu time :  7994.2 secs   av.it.:  18.1
      thresh= 2.526E-07 alpha_mix =  0.100 |ddv_scf|^2 =  2.812E-12

      iter #   8 total cpu time :  8006.4 secs   av.it.:  19.6
      thresh= 1.677E-07 alpha_mix =  0.100 |ddv_scf|^2 =  1.367E-13

     End of self-consistent calculation

     Convergence has been achieved 


     Representation #   2 mode #   2

     Self-consistent Calculation

      iter #   1 total cpu time :  8014.6 secs   av.it.:  11.5
      thresh= 1.000E-02 alpha_mix =  0.100 |ddv_scf|^2 =  1.839E-06

      iter #   2 total cpu time :  8025.2 secs   av.it.:  16.2
      thresh= 1.356E-04 alpha_mix =  0.100 |ddv_scf|^2 =  1.010E-06

      iter #   3 total cpu time :  8036.9 secs   av.it.:  18.7
      thresh= 1.005E-04 alpha_mix =  0.100 |ddv_scf|^2 =  8.024E-08

      iter #   4 total cpu time :  8048.7 secs   av.it.:  18.7
      thresh= 2.833E-05 alpha_mix =  0.100 |ddv_scf|^2 =  7.758E-09

      iter #   5 total cpu time :  8059.4 secs   av.it.:  16.8
      thresh= 8.808E-06 alpha_mix =  0.100 |ddv_scf|^2 =  3.862E-09

      iter #   6 total cpu time :  8071.5 secs   av.it.:  19.3
      thresh= 6.214E-06 alpha_mix =  0.100 |ddv_scf|^2 =  8.136E-11

      iter #   7 total cpu time :  8083.1 secs   av.it.:  18.4
      thresh= 9.020E-07 alpha_mix =  0.100 |ddv_scf|^2 =  2.504E-11

      iter #   8 total cpu time :  8094.7 secs   av.it.:  18.5
      thresh= 5.004E-07 alpha_mix =  0.100 |ddv_scf|^2 =  1.177E-11

      iter #   9 total cpu time :  8106.3 secs   av.it.:  18.4
      thresh= 3.431E-07 alpha_mix =  0.100 |ddv_scf|^2 =  5.846E-13

     End of self-consistent calculation

     Convergence has been achieved 


     Representation #   3 mode #   3

     Self-consistent Calculation

      iter #   1 total cpu time :  8113.7 secs   av.it.:   9.7
      thresh= 1.000E-02 alpha_mix =  0.100 |ddv_scf|^2 =  7.250E-07

      iter #   2 total cpu time :  8124.5 secs   av.it.:  16.8
      thresh= 8.515E-05 alpha_mix =  0.100 |ddv_scf|^2 =  5.035E-08

      iter #   3 total cpu time :  8135.6 secs   av.it.:  17.1
      thresh= 2.244E-05 alpha_mix =  0.100 |ddv_scf|^2 =  1.652E-08

      iter #   4 total cpu time :  8147.7 secs   av.it.:  19.5
      thresh= 1.285E-05 alpha_mix =  0.100 |ddv_scf|^2 =  4.052E-10

      iter #   5 total cpu time :  8159.8 secs   av.it.:  19.0
      thresh= 2.013E-06 alpha_mix =  0.100 |ddv_scf|^2 =  1.309E-10

      iter #   6 total cpu time :  8171.0 secs   av.it.:  17.7
      thresh= 1.144E-06 alpha_mix =  0.100 |ddv_scf|^2 =  7.116E-11

      iter #   7 total cpu time :  8183.6 secs   av.it.:  20.1
      thresh= 8.436E-07 alpha_mix =  0.100 |ddv_scf|^2 =  1.901E-12

      iter #   8 total cpu time :  8195.4 secs   av.it.:  18.0
      thresh= 1.379E-07 alpha_mix =  0.100 |ddv_scf|^2 =  9.859E-13

     End of self-consistent calculation

     Convergence has been achieved 


     Representation #   4 mode #   4

     Self-consistent Calculation

      iter #   1 total cpu time :  8203.0 secs   av.it.:   9.4
      thresh= 1.000E-02 alpha_mix =  0.100 |ddv_scf|^2 =  7.337E-08

      iter #   2 total cpu time :  8213.8 secs   av.it.:  16.8
      thresh= 2.709E-05 alpha_mix =  0.100 |ddv_scf|^2 =  3.910E-08

      iter #   3 total cpu time :  8225.7 secs   av.it.:  19.0
      thresh= 1.977E-05 alpha_mix =  0.100 |ddv_scf|^2 =  2.475E-09

      iter #   4 total cpu time :  8237.1 secs   av.it.:  18.0
      thresh= 4.975E-06 alpha_mix =  0.100 |ddv_scf|^2 =  8.871E-10

      iter #   5 total cpu time :  8249.1 secs   av.it.:  19.1
      thresh= 2.978E-06 alpha_mix =  0.100 |ddv_scf|^2 =  1.574E-10

      iter #   6 total cpu time :  8261.3 secs   av.it.:  19.5
      thresh= 1.254E-06 alpha_mix =  0.100 |ddv_scf|^2 =  1.662E-11

      iter #   7 total cpu time :  8272.2 secs   av.it.:  17.0
      thresh= 4.077E-07 alpha_mix =  0.100 |ddv_scf|^2 =  1.053E-11

      iter #   8 total cpu time :  8284.3 secs   av.it.:  19.2
      thresh= 3.246E-07 alpha_mix =  0.100 |ddv_scf|^2 =  1.136E-12

      iter #   9 total cpu time :  8296.3 secs   av.it.:  19.0
      thresh= 1.066E-07 alpha_mix =  0.100 |ddv_scf|^2 =  1.579E-13

     End of self-consistent calculation

     Convergence has been achieved 


     Representation #   5 mode #   5

     Self-consistent Calculation

      iter #   1 total cpu time :  8304.6 secs   av.it.:  11.5
      thresh= 1.000E-02 alpha_mix =  0.100 |ddv_scf|^2 =  2.102E-06

      iter #   2 total cpu time :  8315.3 secs   av.it.:  16.7
      thresh= 1.450E-04 alpha_mix =  0.100 |ddv_scf|^2 =  1.052E-06

      iter #   3 total cpu time :  8327.2 secs   av.it.:  18.7
      thresh= 1.026E-04 alpha_mix =  0.100 |ddv_scf|^2 =  1.096E-07

      iter #   4 total cpu time :  8338.8 secs   av.it.:  18.3
      thresh= 3.311E-05 alpha_mix =  0.100 |ddv_scf|^2 =  2.941E-08

      iter #   5 total cpu time :  8350.2 secs   av.it.:  18.0
      thresh= 1.715E-05 alpha_mix =  0.100 |ddv_scf|^2 =  1.352E-08

      iter #   6 total cpu time :  8362.0 secs   av.it.:  18.7
      thresh= 1.163E-05 alpha_mix =  0.100 |ddv_scf|^2 =  3.637E-10

      iter #   7 total cpu time :  8373.6 secs   av.it.:  18.3
      thresh= 1.907E-06 alpha_mix =  0.100 |ddv_scf|^2 =  1.132E-10

      iter #   8 total cpu time :  8385.6 secs   av.it.:  19.2
      thresh= 1.064E-06 alpha_mix =  0.100 |ddv_scf|^2 =  3.399E-11

      iter #   9 total cpu time :  8397.8 secs   av.it.:  19.4
      thresh= 5.831E-07 alpha_mix =  0.100 |ddv_scf|^2 =  6.955E-12

      iter #  10 total cpu time :  8409.1 secs   av.it.:  17.6
      thresh= 2.637E-07 alpha_mix =  0.100 |ddv_scf|^2 =  3.613E-12

      iter #  11 total cpu time :  8420.5 secs   av.it.:  16.8
      thresh= 1.901E-07 alpha_mix =  0.100 |ddv_scf|^2 =  2.096E-12

      iter #  12 total cpu time :  8432.3 secs   av.it.:  18.3
      thresh= 1.448E-07 alpha_mix =  0.100 |ddv_scf|^2 =  2.630E-13

     End of self-consistent calculation

     Convergence has been achieved 


     Representation #   6 mode #   6

     Self-consistent Calculation

      iter #   1 total cpu time :  8439.3 secs   av.it.:   9.1
      thresh= 1.000E-02 alpha_mix =  0.100 |ddv_scf|^2 =  7.462E-08

      iter #   2 total cpu time :  8450.1 secs   av.it.:  16.8
      thresh= 2.732E-05 alpha_mix =  0.100 |ddv_scf|^2 =  4.420E-08

      iter #   3 total cpu time :  8462.2 secs   av.it.:  19.2
      thresh= 2.102E-05 alpha_mix =  0.100 |ddv_scf|^2 =  4.784E-10

      iter #   4 total cpu time :  8474.1 secs   av.it.:  18.7
      thresh= 2.187E-06 alpha_mix =  0.100 |ddv_scf|^2 =  1.865E-10

      iter #   5 total cpu time :  8486.5 secs   av.it.:  20.0
      thresh= 1.366E-06 alpha_mix =  0.100 |ddv_scf|^2 =  6.550E-12

      iter #   6 total cpu time :  8498.0 secs   av.it.:  18.0
      thresh= 2.559E-07 alpha_mix =  0.100 |ddv_scf|^2 =  3.186E-12

      iter #   7 total cpu time :  8510.4 secs   av.it.:  19.9
      thresh= 1.785E-07 alpha_mix =  0.100 |ddv_scf|^2 =  3.593E-13

     End of self-consistent calculation

     Convergence has been achieved 


     Representation #   7 mode #   7

     Self-consistent Calculation

      iter #   1 total cpu time :  8518.3 secs   av.it.:  10.9
      thresh= 1.000E-02 alpha_mix =  0.100 |ddv_scf|^2 =  5.802E-07

      iter #   2 total cpu time :  8529.5 secs   av.it.:  17.6
      thresh= 7.617E-05 alpha_mix =  0.100 |ddv_scf|^2 =  3.323E-07

      iter #   3 total cpu time :  8542.2 secs   av.it.:  20.5
      thresh= 5.764E-05 alpha_mix =  0.100 |ddv_scf|^2 =  7.142E-09

      iter #   4 total cpu time :  8554.1 secs   av.it.:  18.9
      thresh= 8.451E-06 alpha_mix =  0.100 |ddv_scf|^2 =  3.132E-09

      iter #   5 total cpu time :  8567.2 secs   av.it.:  21.1
      thresh= 5.596E-06 alpha_mix =  0.100 |ddv_scf|^2 =  2.087E-10

      iter #   6 total cpu time :  8579.9 secs   av.it.:  20.6
      thresh= 1.445E-06 alpha_mix =  0.100 |ddv_scf|^2 =  2.092E-11

      iter #   7 total cpu time :  8591.3 secs   av.it.:  18.1
      thresh= 4.574E-07 alpha_mix =  0.100 |ddv_scf|^2 =  1.570E-11

      iter #   8 total cpu time :  8603.7 secs   av.it.:  19.9
      thresh= 3.962E-07 alpha_mix =  0.100 |ddv_scf|^2 =  4.145E-12

      iter #   9 total cpu time :  8616.0 secs   av.it.:  19.6
      thresh= 2.036E-07 alpha_mix =  0.100 |ddv_scf|^2 =  7.989E-13

     End of self-consistent calculation

     Convergence has been achieved 


     Representation #   8 mode #   8

     Self-consistent Calculation

      iter #   1 total cpu time :  8623.1 secs   av.it.:   9.3
      thresh= 1.000E-02 alpha_mix =  0.100 |ddv_scf|^2 =  8.728E-08

      iter #   2 total cpu time :  8633.9 secs   av.it.:  16.9
      thresh= 2.954E-05 alpha_mix =  0.100 |ddv_scf|^2 =  4.965E-08

      iter #   3 total cpu time :  8646.2 secs   av.it.:  19.8
      thresh= 2.228E-05 alpha_mix =  0.100 |ddv_scf|^2 =  3.869E-10

      iter #   4 total cpu time :  8657.4 secs   av.it.:  17.7
      thresh= 1.967E-06 alpha_mix =  0.100 |ddv_scf|^2 =  2.369E-10

      iter #   5 total cpu time :  8670.6 secs   av.it.:  21.5
      thresh= 1.539E-06 alpha_mix =  0.100 |ddv_scf|^2 =  1.287E-11

      iter #   6 total cpu time :  8683.0 secs   av.it.:  19.7
      thresh= 3.588E-07 alpha_mix =  0.100 |ddv_scf|^2 =  2.925E-12

      iter #   7 total cpu time :  8695.8 secs   av.it.:  20.6
      thresh= 1.710E-07 alpha_mix =  0.100 |ddv_scf|^2 =  6.881E-13

     End of self-consistent calculation

     Convergence has been achieved 


     Representation #   9 mode #   9

     Self-consistent Calculation

      iter #   1 total cpu time :  8702.6 secs   av.it.:   8.9
      thresh= 1.000E-02 alpha_mix =  0.100 |ddv_scf|^2 =  1.659E-08

      iter #   2 total cpu time :  8713.5 secs   av.it.:  16.9
      thresh= 1.288E-05 alpha_mix =  0.100 |ddv_scf|^2 =  1.065E-08

      iter #   3 total cpu time :  8725.7 secs   av.it.:  19.5
      thresh= 1.032E-05 alpha_mix =  0.100 |ddv_scf|^2 =  6.720E-10

      iter #   4 total cpu time :  8737.3 secs   av.it.:  18.3
      thresh= 2.592E-06 alpha_mix =  0.100 |ddv_scf|^2 =  3.231E-10

      iter #   5 total cpu time :  8749.8 secs   av.it.:  19.9
      thresh= 1.798E-06 alpha_mix =  0.100 |ddv_scf|^2 =  3.952E-11

      iter #   6 total cpu time :  8762.2 secs   av.it.:  19.8
      thresh= 6.287E-07 alpha_mix =  0.100 |ddv_scf|^2 =  9.959E-13

     End of self-consistent calculation

     Convergence has been achieved 

     Number of q in the star =    2
     List of q in the star:
          1  -0.333333000  -0.577350000   0.000000000
          2   0.333333000  -0.577350000  -0.000000000

     Diagonalizing the dynamical matrix

     q = (   -0.333333000  -0.577350000   0.000000000 ) 

 **************************************************************************
     freq (    1) =       5.102214 [THz] =     170.191533 [cm-1]
     freq (    2) =       5.536453 [THz] =     184.676210 [cm-1]
     freq (    3) =       6.853234 [THz] =     228.599295 [cm-1]
     freq (    4) =       9.372770 [THz] =     312.641957 [cm-1]
     freq (    5) =       9.800081 [THz] =     326.895531 [cm-1]
     freq (    6) =       9.906470 [THz] =     330.444271 [cm-1]
     freq (    7) =      11.092451 [THz] =     370.004335 [cm-1]
     freq (    8) =      11.415493 [THz] =     380.779849 [cm-1]
     freq (    9) =      11.698730 [THz] =     390.227614 [cm-1]
 **************************************************************************

     Mode symmetry, C_3h (-6)   point group:

     freq (   1-   1) =        170.2  [cm-1]   --> E'*                
     freq (   2-   2) =        184.7  [cm-1]   --> E''                
     freq (   3-   3) =        228.6  [cm-1]   --> A'                 
     freq (   4-   4) =        312.6  [cm-1]   --> E''*               
     freq (   5-   5) =        326.9  [cm-1]   --> E'                 
     freq (   6-   6) =        330.4  [cm-1]   --> A''                
     freq (   7-   7) =        370.0  [cm-1]   --> E''                
     freq (   8-   8) =        380.8  [cm-1]   --> A'                 
     freq (   9-   9) =        390.2  [cm-1]   --> E'*                

     PHONON       :      2h20m CPU      2h26m WALL

     INITIALIZATION: 
     phq_setup    :      0.81s CPU      0.86s WALL (       6 calls)
     phq_init     :      5.72s CPU      5.98s WALL (       6 calls)

     phq_init     :      5.72s CPU      5.98s WALL (       6 calls)
     set_drhoc    :      0.01s CPU      0.01s WALL (      16 calls)
     init_vloc    :      0.20s CPU      0.20s WALL (       7 calls)
     init_us_1    :      0.00s CPU      0.00s WALL (       7 calls)
     init_us_2    :     14.42s CPU     15.12s WALL (  113004 calls)

     DYNAMICAL MATRIX:
     dynmat0      :      3.64s CPU      3.71s WALL (       5 calls)
     dynmat_us    :      3.52s CPU      3.58s WALL (       5 calls)
     d2ionq       :      0.04s CPU      0.04s WALL (       5 calls)
     dynmatcc     :      0.07s CPU      0.07s WALL (       5 calls)
     phqscf       :   8206.81s CPU   8559.61s WALL (       6 calls)
     dynmatrix    :      0.02s CPU      0.05s WALL (       6 calls)

     phqscf       :   8206.81s CPU   8559.61s WALL (       6 calls)
     solve_linter :   8197.71s CPU   8549.60s WALL (      52 calls)
     sth_kernel   :   8010.23s CPU   8336.09s WALL (     431 calls)
     h_prec       :     11.01s CPU     11.37s WALL (   87999 calls)
     apply_dpot_b :    299.49s CPU    314.51s WALL (   77793 calls)
     ortho        :     10.38s CPU     10.86s WALL (   87999 calls)
     cgsolve      :   7313.45s CPU   7602.64s WALL (   87999 calls)
     incdrhoscf   :    340.81s CPU    358.67s WALL (   87999 calls)
                                        0.00s GPU  (   87999 calls)
     dv_of_drho   :      4.10s CPU      4.21s WALL (     431 calls)
     mix_pot      :      5.14s CPU      8.10s WALL (     431 calls)
     drhodv       :      9.02s CPU      9.34s WALL (      52 calls)
     psymdvscf    :    115.03s CPU    127.39s WALL (     431 calls)

     dvqpsi_us    :     53.22s CPU     56.09s WALL (   10377 calls)
                                        0.00s GPU  (   10377 calls)
     dvqpsi_us_on :      8.96s CPU      9.23s WALL (   10377 calls)

     add_vuspsi   :    157.01s CPU    163.70s WALL ( 2300612 calls)


      General routines
     calbec       :    572.41s CPU    595.64s WALL ( 4605756 calls)
     fft          :      6.51s CPU      6.91s WALL (    7122 calls)
     ffts         :      4.74s CPU      5.04s WALL (   11719 calls)
     fftw         :   6436.00s CPU   6697.50s WALL (45918482 calls)
     davcio       :     24.21s CPU     29.76s WALL (  469840 calls)
     write_rec    :      0.54s CPU      5.11s WALL (     483 calls)

      Additional routines
     ch_psi       :   7139.98s CPU   7421.21s WALL ( 2252752 calls)
     last         :    501.40s CPU    520.63s WALL ( 2252752 calls)
     Hesh         :      8.30s CPU      8.77s WALL ( 2252752 calls)
     ch_psi_all_k :    483.37s CPU    501.91s WALL ( 2252752 calls)
                                        0.00s GPU  ( 2252752 calls)
     ch_psi_calbe :    273.93s CPU    283.43s WALL ( 2252752 calls)
                                        0.00s GPU  ( 2252752 calls)
     h_psi_bgrp   :   6750.41s CPU   7016.90s WALL ( 2300612 calls)
     h_psi        :   6744.19s CPU   7010.74s WALL ( 2300612 calls)
     h_psi:pot    :   6729.27s CPU   6995.10s WALL ( 2300612 calls)
     h_psi:calbec :    305.12s CPU    316.08s WALL ( 2300612 calls)
     s_psi_bgrp   :     14.43s CPU     15.23s WALL ( 4593503 calls)


     PHONON       :      2h20m CPU      2h26m WALL


   This run was terminated on:   1:49:18  25Feb2026            

=------------------------------------------------------------------------------=
   JOB DONE.
=------------------------------------------------------------------------------=
