
     Program Q2R v.7.3.1 starts on  4Mar2026 at 18:55:35 

     This program is part of the open-source Quantum ESPRESSO suite
     for quantum simulation of materials; please cite
         "P. Giannozzi et al., J. Phys.:Condens. Matter 21 395502 (2009);
         "P. Giannozzi et al., J. Phys.:Condens. Matter 29 465901 (2017);
         "P. Giannozzi et al., J. Chem. Phys. 152 154105 (2020);
          URL http://www.quantum-espresso.org", 
     in publications or presentations arising from this work. More details at
     http://www.quantum-espresso.org/quote

     Parallel version (MPI), running on     1 processors

     MPI processes distributed on     1 nodes
     140419 MiB available memory on the printing compute node when the environment starts


  file MoS2.dyn0.xml not found

  reading grid info from file MoS2.dyn0

  reading force constants from file MoS2.dyn1
  nqs=            1
 q=   0.00000000  0.00000000  0.00000000
  reading force constants from file MoS2.dyn2
  nqs=            6
 q=  -0.00000000 -0.19245000  0.00000000
 q=   0.00000000  0.19245000 -0.00000000
 q=  -0.16666659  0.09622500  0.00000000
 q=   0.16666659 -0.09622500 -0.00000000
 q=   0.16666659  0.09622500 -0.00000000
 q=  -0.16666659 -0.09622500  0.00000000
  reading force constants from file MoS2.dyn3
  nqs=            6
 q=  -0.00000001 -0.38490000  0.00000000
 q=   0.00000001  0.38490000 -0.00000000
 q=  -0.33333317  0.19245001  0.00000000
 q=   0.33333317 -0.19245001 -0.00000000
 q=   0.33333318  0.19244999 -0.00000000
 q=  -0.33333318 -0.19244999  0.00000000
  reading force constants from file MoS2.dyn4
  nqs=            3
 q=   0.00000001  0.57735000  0.00000000
 q=   0.49999976 -0.28867501  0.00000000
 q=  -0.49999977 -0.28867499  0.00000000
  reading force constants from file MoS2.dyn5
  nqs=            6
 q=  -0.16666700 -0.28867500  0.00000000
 q=   0.16666700 -0.28867500 -0.00000000
 q=  -0.16666638  0.28867536  0.00000000
 q=   0.33333338 -0.00000036 -0.00000000
 q=   0.16666638  0.28867536  0.00000000
 q=  -0.33333338 -0.00000036  0.00000000
  reading force constants from file MoS2.dyn6
  nqs=           12
 q=  -0.16666700 -0.48112500  0.00000000
 q=   0.16666700  0.48112500 -0.00000000
 q=   0.16666700 -0.48112500 -0.00000000
 q=  -0.16666700  0.48112500  0.00000000
 q=  -0.33333297  0.38490036  0.00000000
 q=   0.33333297 -0.38490036 -0.00000000
 q=   0.49999997  0.09622464 -0.00000000
 q=  -0.49999997 -0.09622464  0.00000000
 q=   0.33333297  0.38490036  0.00000000
 q=  -0.33333297 -0.38490036 -0.00000000
 q=  -0.49999997  0.09622464  0.00000000
 q=   0.49999997 -0.09622464 -0.00000000
  reading force constants from file MoS2.dyn7
  nqs=            2
 q=  -0.33333300 -0.57735000  0.00000000
 q=   0.33333300 -0.57735000 -0.00000000

      q-space grid ok, #points =   36

      fft-check warning: sum of imaginary terms = 1.296598E-05

     Q2R          :      0.03s CPU      0.07s WALL


   This run was terminated on:  18:55:35   4Mar2026            

=------------------------------------------------------------------------------=
   JOB DONE.
=------------------------------------------------------------------------------=
