
     Program PWSCF v.7.5 starts on  5Mar2026 at 16:57: 8 
        Git branch: HEAD
        Last git commit: 770a0b2d12928a67048e2f3da8d10d057e52179e
        Last git commit date: Tue Aug 19 09:57:12 2025 +0000
        Last git commit subject: Merge branch 'QE-7.5-RC' into 'master'

     This program is part of the open-source Quantum ESPRESSO suite
     for quantum simulation of materials; please cite
         "P. Giannozzi et al., J. Phys.:Condens. Matter 21 395502 (2009);
         "P. Giannozzi et al., J. Phys.:Condens. Matter 29 465901 (2017);
         "P. Giannozzi et al., J. Chem. Phys. 152 154105 (2020);
          URL http://www.quantum-espresso.org", 
     in publications or presentations arising from this work. More details at
     http://www.quantum-espresso.org/quote

     Parallel version (MPI), running on    64 processors

     MPI processes distributed on     4 nodes
     240421 MiB available memory on the printing compute node when the environment starts

     Waiting for input...
     Reading input from standard input

     Current dimensions of program PWSCF are:
     Max number of different atomic species (ntypx) = 10
     Max number of k-points (npk) =  40000
     Max angular momentum in pseudopotentials (lmaxx) =  4

     Atomic positions and unit cell read from directory:
     ./tmp/MoS2.save/


     R & G space division:  proc/nbgrp/npool/nimage =      64
     Subspace diagonalization in iterative solution of the eigenvalue problem:
     one sub-group per band group will be used
     custom distributed-memory algorithm (size of sub-group:  2*  2 procs)


     Parallelization info
     --------------------
     sticks:   dense  smooth     PW     G-vecs:    dense   smooth      PW
     Min          30      15      4                 7300     2568     388
     Max          31      17      5                 7337     2593     413
     Sum        1945     967    283               468457   165261   25403

     Using Slab Decomposition



     bravais-lattice index     =            4
     lattice parameter (alat)  =       5.9477  a.u.
     unit-cell volume          =    1225.4506 (a.u.)^3
     number of atoms/cell      =            3
     number of atomic types    =            2
     number of electrons       =        26.00
     number of Kohn-Sham states=          200
     kinetic-energy cutoff     =     100.0000  Ry
     charge density cutoff     =     800.0000  Ry
     Exchange-correlation= PBESOL
                           (   1   4  10   8   0   0   0)

     celldm(1)=   5.947749  celldm(2)=   0.000000  celldm(3)=   6.725234
     celldm(4)=   0.000000  celldm(5)=   0.000000  celldm(6)=   0.000000

     crystal axes: (cart. coord. in units of alat)
               a(1) = (   1.000000   0.000000   0.000000 )  
               a(2) = (  -0.500000   0.866025   0.000000 )  
               a(3) = (   0.000000   0.000000   6.725234 )  

     reciprocal axes: (cart. coord. in units 2 pi/alat)
               b(1) = (  1.000000  0.577350 -0.000000 )  
               b(2) = (  0.000000  1.154701  0.000000 )  
               b(3) = (  0.000000 -0.000000  0.148694 )  


     PseudoPot. # 1 for Mo read from file:
     ../pseudo/Mo.pbesol.dojo.upf
     MD5 check sum: c40353276b9086539cda6b9e5a66907b
     Pseudo is Norm-conserving + core correction, Zval = 14.0
     Generated using ONCVPSP code by D. R. Hamann
     Using radial grid of 1640 points,  6 beta functions with: 
                l(1) =   0
                l(2) =   0
                l(3) =   1
                l(4) =   1
                l(5) =   2
                l(6) =   2

     PseudoPot. # 2 for S  read from file:
     ../pseudo/S.pbesol.dojo.upf
     MD5 check sum: 501737efeeef1fb1c631cda521d4e019
     Pseudo is Norm-conserving + core correction, Zval =  6.0
     Generated using ONCVPSP code by D. R. Hamann
     Using radial grid of 1146 points,  6 beta functions with: 
                l(1) =   0
                l(2) =   0
                l(3) =   1
                l(4) =   1
                l(5) =   2
                l(6) =   2

     atomic species   valence    mass     pseudopotential
     Mo               14.00    95.95000     Mo( 1.00)
     S                 6.00    32.06500     S ( 1.00)

     12 Sym. Ops. (no inversion) found


                                    s                        frac. trans.

      isym =  1     identity                                     

 cryst.   s( 1) = (     1          0          0      )
                  (     0          1          0      )
                  (     0          0          1      )

 cart.    s( 1) = (  1.0000000  0.0000000  0.0000000 )
                  (  0.0000000  1.0000000  0.0000000 )
                  (  0.0000000  0.0000000  1.0000000 )


      isym =  2     180 deg rotation - cart. axis [0,1,0]        

 cryst.   s( 2) = (    -1          0          0      )
                  (     1          1          0      )
                  (     0          0         -1      )

 cart.    s( 2) = ( -1.0000000  0.0000000  0.0000000 )
                  (  0.0000000  1.0000000  0.0000000 )
                  (  0.0000000  0.0000000 -1.0000000 )


      isym =  3     120 deg rotation - cryst. axis [0,0,1]       

 cryst.   s( 3) = (     0          1          0      )
                  (    -1         -1          0      )
                  (     0          0          1      )

 cart.    s( 3) = ( -0.5000000 -0.8660254  0.0000000 )
                  (  0.8660254 -0.5000000  0.0000000 )
                  (  0.0000000  0.0000000  1.0000000 )


      isym =  4     120 deg rotation - cryst. axis [0,0,-1]      

 cryst.   s( 4) = (    -1         -1          0      )
                  (     1          0          0      )
                  (     0          0          1      )

 cart.    s( 4) = ( -0.5000000  0.8660254  0.0000000 )
                  ( -0.8660254 -0.5000000  0.0000000 )
                  (  0.0000000  0.0000000  1.0000000 )


      isym =  5     180 deg rotation - cryst. axis [1,-1,0]      

 cryst.   s( 5) = (     0         -1          0      )
                  (    -1          0          0      )
                  (     0          0         -1      )

 cart.    s( 5) = (  0.5000000 -0.8660254  0.0000000 )
                  ( -0.8660254 -0.5000000  0.0000000 )
                  (  0.0000000  0.0000000 -1.0000000 )


      isym =  6     180 deg rotation - cryst. axis [2,1,0]       

 cryst.   s( 6) = (     1          1          0      )
                  (     0         -1          0      )
                  (     0          0         -1      )

 cart.    s( 6) = (  0.5000000  0.8660254  0.0000000 )
                  (  0.8660254 -0.5000000  0.0000000 )
                  (  0.0000000  0.0000000 -1.0000000 )


      isym =  7     inv. 180 deg rotation - cart. axis [0,0,1]   

 cryst.   s( 7) = (     1          0          0      )
                  (     0          1          0      )
                  (     0          0         -1      )

 cart.    s( 7) = (  1.0000000  0.0000000  0.0000000 )
                  (  0.0000000  1.0000000  0.0000000 )
                  (  0.0000000  0.0000000 -1.0000000 )


      isym =  8     inv. 180 deg rotation - cart. axis [1,0,0]   

 cryst.   s( 8) = (    -1          0          0      )
                  (     1          1          0      )
                  (     0          0          1      )

 cart.    s( 8) = ( -1.0000000  0.0000000  0.0000000 )
                  (  0.0000000  1.0000000  0.0000000 )
                  (  0.0000000  0.0000000  1.0000000 )


      isym =  9     inv.  60 deg rotation - cryst. axis [0,0,1]  

 cryst.   s( 9) = (    -1         -1          0      )
                  (     1          0          0      )
                  (     0          0         -1      )

 cart.    s( 9) = ( -0.5000000  0.8660254  0.0000000 )
                  ( -0.8660254 -0.5000000  0.0000000 )
                  (  0.0000000  0.0000000 -1.0000000 )


      isym = 10     inv.  60 deg rotation - cryst. axis [0,0,-1] 

 cryst.   s(10) = (     0          1          0      )
                  (    -1         -1          0      )
                  (     0          0         -1      )

 cart.    s(10) = ( -0.5000000 -0.8660254  0.0000000 )
                  (  0.8660254 -0.5000000  0.0000000 )
                  (  0.0000000  0.0000000 -1.0000000 )


      isym = 11     inv. 180 deg rotation - cryst. axis [0,1,0]  

 cryst.   s(11) = (     1          1          0      )
                  (     0         -1          0      )
                  (     0          0          1      )

 cart.    s(11) = (  0.5000000  0.8660254  0.0000000 )
                  (  0.8660254 -0.5000000  0.0000000 )
                  (  0.0000000  0.0000000  1.0000000 )


      isym = 12     inv. 180 deg rotation - cryst. axis [1,1,0]  

 cryst.   s(12) = (     0         -1          0      )
                  (    -1          0          0      )
                  (     0          0          1      )

 cart.    s(12) = (  0.5000000 -0.8660254  0.0000000 )
                  ( -0.8660254 -0.5000000  0.0000000 )
                  (  0.0000000  0.0000000  1.0000000 )


     point group D_3h (-62m)
     there are  6 classes
     the character table:

       E     2C3   3C2   s_h   2S3   3s_v 
A'_1   1.00  1.00  1.00  1.00  1.00  1.00
A'_2   1.00  1.00 -1.00  1.00  1.00 -1.00
E'     2.00 -1.00  0.00  2.00 -1.00  0.00
A''1   1.00  1.00  1.00 -1.00 -1.00 -1.00
A''2   1.00  1.00 -1.00 -1.00 -1.00  1.00
E''    2.00 -1.00  0.00 -2.00  1.00  0.00

     the symmetry operations in each class and the name of the first element:

     E        1
          identity                                               
     2C3      3    4
          120 deg rotation - cryst. axis [0,0,1]                 
     3C2      2    6    5
          180 deg rotation - cart. axis [0,1,0]                  
     s_h      7
          inv. 180 deg rotation - cart. axis [0,0,1]             
     2S3      9   10
          inv.  60 deg rotation - cryst. axis [0,0,1]            
     3s_v     8   11   12
          inv. 180 deg rotation - cart. axis [1,0,0]             

   Cartesian axes

     site n.     atom                  positions (alat units)
         1        Mo     tau(   1) = (  -0.0000000   0.5773503   0.0000000  )
         2        S      tau(   2) = (   0.5000000   0.2886751   0.4945008  )
         3        S      tau(   3) = (   0.5000000   0.2886751  -0.4945008  )

     Fixed atoms
     site n.  direction
         1    1   1   1
         2    0   0   1
         3    0   0   1

   Crystallographic axes

     site n.     atom                  positions (cryst. coord.)
         1        Mo     tau(   1) = (  0.3333333  0.6666667  0.0000000  )
         2        S      tau(   2) = (  0.6666667  0.3333333  0.0735292  )
         3        S      tau(   3) = (  0.6666667  0.3333333 -0.0735292  )

     number of k points=     7  Marzari-Vanderbilt smearing, width (Ry)=  0.0010
                       cart. coord. in units 2pi/alat
        k(    1) = (   0.0000000   0.0000000   0.0000000), wk =   0.0555556
        k(    2) = (   0.0000000   0.1924501   0.0000000), wk =   0.3333333
        k(    3) = (   0.0000000   0.3849002   0.0000000), wk =   0.3333333
        k(    4) = (   0.0000000  -0.5773503   0.0000000), wk =   0.1666667
        k(    5) = (   0.1666667   0.2886751   0.0000000), wk =   0.3333333
        k(    6) = (   0.1666667   0.4811252   0.0000000), wk =   0.6666667
        k(    7) = (   0.3333333   0.5773503   0.0000000), wk =   0.1111111

                       cryst. coord.
        k(    1) = (   0.0000000   0.0000000   0.0000000), wk =   0.0555556
        k(    2) = (   0.0000000   0.1666667   0.0000000), wk =   0.3333333
        k(    3) = (   0.0000000   0.3333333   0.0000000), wk =   0.3333333
        k(    4) = (   0.0000000  -0.5000000   0.0000000), wk =   0.1666667
        k(    5) = (   0.1666667   0.1666667   0.0000000), wk =   0.3333333
        k(    6) = (   0.1666667   0.3333333   0.0000000), wk =   0.6666667
        k(    7) = (   0.3333333   0.3333333   0.0000000), wk =   0.1111111

     Dense  grid:   468457 G-vectors     FFT dimensions: (  60,  60, 420)

     Smooth grid:   165261 G-vectors     FFT dimensions: (  48,  48, 300)

     Dynamical RAM for                 wfc:       0.99 MB

     Dynamical RAM for     wfc (w. buffer):       0.99 MB

     Dynamical RAM for           str. fact:       0.22 MB

     Dynamical RAM for           local pot:       0.00 MB

     Dynamical RAM for          nlocal pot:       0.27 MB

     Dynamical RAM for                qrad:       4.54 MB

     Dynamical RAM for          rho,v,vnew:       0.91 MB

     Dynamical RAM for           G-vectors:       0.44 MB

     Dynamical RAM for          h,s,v(r/c):       1.83 MB

     Dynamical RAM for          <psi|beta>:       0.16 MB

     Dynamical RAM for                 psi:       1.97 MB

     Dynamical RAM for                hpsi:       1.97 MB

     Dynamical RAM for      wfcinit/wfcrot:       2.89 MB

     Estimated static dynamical RAM per process >       8.66 MB

     Estimated max dynamical RAM per process >      14.60 MB

     Estimated total dynamical RAM >     934.18 MB

     The potential is recalculated from file :
     ./tmp/MoS2.save/charge-density

     Starting wfcs are   18 randomized atomic wfcs +  182 random wfcs

     Band Structure Calculation
     Davidson diagonalization with overlap

     Computing kpt #:     1  of     7
     total cpu time spent up to now is       14.6 secs

     Computing kpt #:     2  of     7
     total cpu time spent up to now is       26.4 secs

     Computing kpt #:     3  of     7
     total cpu time spent up to now is       37.5 secs

     Computing kpt #:     4  of     7
     total cpu time spent up to now is       49.5 secs

     Computing kpt #:     5  of     7
     total cpu time spent up to now is       60.8 secs

     Computing kpt #:     6  of     7
     total cpu time spent up to now is       72.0 secs

     Computing kpt #:     7  of     7
     total cpu time spent up to now is       84.8 secs

     ethr =  1.00E-13,  avg # of iterations = 37.7

     total cpu time spent up to now is       84.8 secs

     End of band structure calculation

          k = 0.0000 0.0000 0.0000 ( 20791 PWs)   bands (ev):

   -61.9145 -36.1174 -35.8587 -35.8587 -15.3999 -14.0344  -6.9477  -3.8226
    -3.8226  -3.0142  -2.6675  -2.6675  -1.2396   1.6872   1.6872   1.9666
     1.9666   4.3410   4.5270   5.0438   5.3566   6.0977   7.0642   7.8845
     8.5443   9.6128   9.6128   9.6403  11.6416  11.6416  11.7171  11.8250
    13.2719  14.9575  14.9575  14.9702  15.2703  15.2703  15.9551  16.2095
    18.4135  18.7416  20.6452  20.9446  21.9916  21.9916  23.6073  23.6073
    24.0443  24.0447  24.2695  24.2695  24.4265  24.4265  24.5188  24.8832
    24.9603  24.9603  25.0665  25.3060  25.3060  25.3639  25.6991  25.6997
    25.6997  25.7291  25.7291  25.7695  25.9804  26.1052  26.1052  26.5141
    26.8550  26.8550  26.9948  27.2500  27.4703  27.4703  27.5967  27.5967
    27.7965  28.3877  28.3877  28.8904  28.9276  28.9276  29.0457  29.5955
    29.8018  29.8018  30.2936  30.2936  30.6208  30.7641  31.3078  31.3078
    31.4612  31.4612  31.8614  32.1215  32.4450  32.7799  32.7799  33.0697
    33.2487  33.2487  34.2248  34.7223  34.7223  35.0178  35.0178  35.1420
    35.1980  35.1980  35.8645  36.2028  36.4398  36.7132  36.7132  37.3552
    37.3552  37.4781  38.1997  38.9843  39.0521  39.0521  39.3851  39.3851
    39.9378  39.9721  40.7160  40.7160  41.2156  41.4545  41.4545  42.7493
    42.8436  42.8436  43.4900  44.0788  44.3398  44.3398  44.3999  44.3999
    45.5536  45.5536  45.7435  46.0557  46.0557  46.3184  46.9003  47.2213
    47.5699  47.5699  48.1923  48.1923  48.7457  48.9013  49.6142  49.6142
    50.1879  50.2556  51.5088  51.5088  51.6693  51.6693  51.9566  53.1248
    53.4191  53.7956  53.7956  53.9949  54.5813  54.5813  55.1236  55.1236
    55.1296  55.8455  56.2525  56.2525  56.4758  56.4758  56.6333  57.3089
    58.3783  58.3783  58.8752  59.6758  59.7652  59.7652  60.2090  60.2090
    60.6244  60.9625  61.3072  61.3072  61.3908  61.4546  61.9551  61.9551

     occupation numbers 
     1.0000   1.0000   1.0000   1.0000   1.0000   1.0000   1.0000   1.0000
     1.0000   1.0000   1.0000   1.0000   1.0000   0.0000   0.0000   0.0000
     0.0000   0.0000   0.0000   0.0000   0.0000   0.0000   0.0000   0.0000
     0.0000   0.0000   0.0000   0.0000   0.0000   0.0000   0.0000   0.0000
     0.0000   0.0000   0.0000   0.0000   0.0000   0.0000   0.0000   0.0000
     0.0000   0.0000   0.0000   0.0000   0.0000   0.0000   0.0000   0.0000
     0.0000   0.0000   0.0000   0.0000   0.0000   0.0000   0.0000   0.0000
     0.0000   0.0000   0.0000   0.0000   0.0000   0.0000   0.0000   0.0000
     0.0000   0.0000   0.0000   0.0000   0.0000   0.0000   0.0000   0.0000
     0.0000   0.0000   0.0000   0.0000   0.0000   0.0000   0.0000   0.0000
     0.0000   0.0000   0.0000   0.0000   0.0000   0.0000   0.0000   0.0000
     0.0000   0.0000   0.0000   0.0000   0.0000   0.0000   0.0000   0.0000
     0.0000   0.0000   0.0000   0.0000   0.0000   0.0000   0.0000   0.0000
     0.0000   0.0000   0.0000   0.0000   0.0000   0.0000   0.0000   0.0000
     0.0000   0.0000   0.0000   0.0000   0.0000   0.0000   0.0000   0.0000
     0.0000   0.0000   0.0000   0.0000   0.0000   0.0000   0.0000   0.0000
     0.0000   0.0000   0.0000   0.0000   0.0000   0.0000   0.0000   0.0000
     0.0000   0.0000   0.0000   0.0000   0.0000   0.0000   0.0000   0.0000
     0.0000   0.0000   0.0000   0.0000   0.0000   0.0000   0.0000   0.0000
     0.0000   0.0000   0.0000   0.0000   0.0000   0.0000   0.0000   0.0000
     0.0000   0.0000   0.0000   0.0000   0.0000   0.0000   0.0000   0.0000
     0.0000   0.0000   0.0000   0.0000   0.0000   0.0000   0.0000   0.0000
     0.0000   0.0000   0.0000   0.0000   0.0000   0.0000   0.0000   0.0000
     0.0000   0.0000   0.0000   0.0000   0.0000   0.0000   0.0000   0.0000
     0.0000   0.0000   0.0000   0.0000   0.0000   0.0000   0.0000   0.0000

          k = 0.0000 0.1925 0.0000 ( 20771 PWs)   bands (ev):

   -61.9035 -36.0959 -35.9671 -35.8833 -14.9819 -13.8650  -6.5200  -4.6000
    -4.1744  -3.3910  -3.2415  -2.2504  -1.5093   1.1749   1.4773   1.5554
     2.3056   4.9435   5.0687   5.7405   6.6223   6.7661   7.6236   8.6847
     8.7371   9.1549  10.2415  10.2487  10.8536  11.3917  11.8840  12.1559
    13.2573  13.4151  14.0209  15.1348  15.6126  16.4314  17.3340  18.0282
    18.3731  18.5321  19.1332  19.7118  19.9092  20.7800  20.7864  21.1573
    21.2027  21.4909  21.6270  21.9563  21.9967  22.3670  22.4301  22.4796
    23.1354  23.2396  23.2701  23.4651  23.8788  24.1440  24.7461  24.8541
    25.3080  26.0116  26.0529  26.3098  26.3655  26.6896  27.3102  27.3909
    27.7565  28.1563  28.2606  28.3923  28.5645  28.9732  29.0046  29.4002
    29.4546  29.5450  29.7409  29.9915  30.1736  30.4251  30.7863  30.9536
    30.9585  31.3473  31.4671  31.6369  31.6715  31.7573  31.7803  32.2121
    32.3000  32.6661  33.1860  33.1910  33.2470  33.3319  33.4492  33.4801
    33.9036  34.4348  34.4956  34.6711  34.7631  35.0505  35.6349  35.9425
    36.0943  36.3314  36.3907  36.8339  36.9895  37.2290  37.7220  38.4063
    38.4353  38.7759  38.7817  39.1608  39.2882  39.7031  39.8801  40.3775
    40.4490  40.4631  40.7825  41.7074  41.8342  42.4430  42.7870  42.7951
    42.8316  43.3764  43.5097  43.5453  44.4830  45.1155  45.2541  45.9019
    45.9875  46.3056  46.3380  46.7115  46.7572  47.0293  47.1508  47.2066
    48.0273  48.1819  48.4939  48.4985  49.1600  49.3445  49.5212  49.9922
    50.2739  50.8144  51.0379  51.2018  51.2169  51.8713  52.3861  52.5832
    52.8878  53.1891  53.3803  53.5274  53.7472  54.0915  54.9244  54.9518
    55.2340  55.3942  55.5013  55.6395  55.6449  55.8307  56.0975  56.2170
    56.4770  56.4814  56.7030  56.9182  57.3067  57.3255  57.6315  58.0871
    58.1210  58.1854  58.3371  58.3717  58.6525  59.1884  59.2362  59.7091

     occupation numbers 
     1.0000   1.0000   1.0000   1.0000   1.0000   1.0000   1.0000   1.0000
     1.0000   1.0000   1.0000   1.0000   1.0000   0.0000   0.0000   0.0000
     0.0000   0.0000   0.0000   0.0000   0.0000   0.0000   0.0000   0.0000
     0.0000   0.0000   0.0000   0.0000   0.0000   0.0000   0.0000   0.0000
     0.0000   0.0000   0.0000   0.0000   0.0000   0.0000   0.0000   0.0000
     0.0000   0.0000   0.0000   0.0000   0.0000   0.0000   0.0000   0.0000
     0.0000   0.0000   0.0000   0.0000   0.0000   0.0000   0.0000   0.0000
     0.0000   0.0000   0.0000   0.0000   0.0000   0.0000   0.0000   0.0000
     0.0000   0.0000   0.0000   0.0000   0.0000   0.0000   0.0000   0.0000
     0.0000   0.0000   0.0000   0.0000   0.0000   0.0000   0.0000   0.0000
     0.0000   0.0000   0.0000   0.0000   0.0000   0.0000   0.0000   0.0000
     0.0000   0.0000   0.0000   0.0000   0.0000   0.0000   0.0000   0.0000
     0.0000   0.0000   0.0000   0.0000   0.0000   0.0000   0.0000   0.0000
     0.0000   0.0000   0.0000   0.0000   0.0000   0.0000   0.0000   0.0000
     0.0000   0.0000   0.0000   0.0000   0.0000   0.0000   0.0000   0.0000
     0.0000   0.0000   0.0000   0.0000   0.0000   0.0000   0.0000   0.0000
     0.0000   0.0000   0.0000   0.0000   0.0000   0.0000   0.0000   0.0000
     0.0000   0.0000   0.0000   0.0000   0.0000   0.0000   0.0000   0.0000
     0.0000   0.0000   0.0000   0.0000   0.0000   0.0000   0.0000   0.0000
     0.0000   0.0000   0.0000   0.0000   0.0000   0.0000   0.0000   0.0000
     0.0000   0.0000   0.0000   0.0000   0.0000   0.0000   0.0000   0.0000
     0.0000   0.0000   0.0000   0.0000   0.0000   0.0000   0.0000   0.0000
     0.0000   0.0000   0.0000   0.0000   0.0000   0.0000   0.0000   0.0000
     0.0000   0.0000   0.0000   0.0000   0.0000   0.0000   0.0000   0.0000
     0.0000   0.0000   0.0000   0.0000   0.0000   0.0000   0.0000   0.0000

          k = 0.0000 0.3849 0.0000 ( 20700 PWs)   bands (ev):

   -61.8814 -36.1788 -36.0525 -35.9321 -14.0058 -13.4772  -6.5679  -5.4828
    -5.1349  -4.0682  -2.8250  -2.5000  -2.2091   1.1328   1.2080   2.3025
     3.0579   6.1606   6.3428   6.7280   7.2397   7.2524   8.1846   8.2583
     9.3644   9.8478  10.8475  11.0424  11.2782  11.8314  13.1877  13.1969
    13.3301  13.7514  13.9338  14.1852  14.5008  14.7530  15.4144  16.0883
    16.5211  16.5295  17.3785  18.1568  18.6883  19.0129  19.3935  19.4333
    20.1199  20.2971  20.6807  20.7300  20.7725  21.3034  21.6414  21.7823
    21.8140  22.0029  22.3258  22.8873  23.0075  23.5963  23.6421  23.9109
    24.0896  24.6641  24.9580  25.2872  25.7190  25.7506  26.2804  26.6725
    26.9020  27.0373  27.7771  27.7774  28.0236  28.1466  28.8504  29.1205
    30.0915  30.0989  30.5610  30.7288  31.0388  31.1355  31.5625  32.3718
    32.6244  32.8707  33.1635  33.4148  33.7431  34.1761  34.1767  34.1793
    34.3937  34.7177  34.8210  35.1533  35.3623  35.4998  35.5482  35.6170
    36.4891  36.5271  36.9290  37.3799  37.3953  37.7513  37.9120  38.1862
    38.3356  38.8430  39.3394  39.5062  39.5826  39.9075  40.1884  40.3031
    40.5737  40.7803  40.8720  41.2235  41.2422  41.6005  42.0052  42.0706
    42.3205  42.4827  42.7328  42.9098  43.1474  43.2104  43.4500  43.7402
    44.0733  44.8202  44.8447  45.1772  45.3510  45.7625  45.9133  45.9218
    46.3847  46.4116  47.0313  47.0915  47.0991  47.2751  47.5629  47.6106
    47.6903  47.8376  48.0909  48.1178  48.3106  48.4590  48.7296  48.8643
    49.0204  49.3710  49.3846  49.4613  49.5734  49.9616  50.3614  50.4717
    50.8601  50.9980  51.0694  51.0938  51.5187  51.9967  52.0993  52.4947
    52.9756  53.0774  53.3883  53.4427  53.4519  53.5176  54.0835  54.2831
    54.6825  54.8315  55.2035  55.6561  55.7247  55.7517  56.1564  56.2165
    56.4330  56.5210  56.7359  56.9805  57.3476  57.6182  57.6404  58.1549

     occupation numbers 
     1.0000   1.0000   1.0000   1.0000   1.0000   1.0000   1.0000   1.0000
     1.0000   1.0000   1.0000   1.0000   1.0000   0.0000   0.0000   0.0000
     0.0000   0.0000   0.0000   0.0000   0.0000   0.0000   0.0000   0.0000
     0.0000   0.0000   0.0000   0.0000   0.0000   0.0000   0.0000   0.0000
     0.0000   0.0000   0.0000   0.0000   0.0000   0.0000   0.0000   0.0000
     0.0000   0.0000   0.0000   0.0000   0.0000   0.0000   0.0000   0.0000
     0.0000   0.0000   0.0000   0.0000   0.0000   0.0000   0.0000   0.0000
     0.0000   0.0000   0.0000   0.0000   0.0000   0.0000   0.0000   0.0000
     0.0000   0.0000   0.0000   0.0000   0.0000   0.0000   0.0000   0.0000
     0.0000   0.0000   0.0000   0.0000   0.0000   0.0000   0.0000   0.0000
     0.0000   0.0000   0.0000   0.0000   0.0000   0.0000   0.0000   0.0000
     0.0000   0.0000   0.0000   0.0000   0.0000   0.0000   0.0000   0.0000
     0.0000   0.0000   0.0000   0.0000   0.0000   0.0000   0.0000   0.0000
     0.0000   0.0000   0.0000   0.0000   0.0000   0.0000   0.0000   0.0000
     0.0000   0.0000   0.0000   0.0000   0.0000   0.0000   0.0000   0.0000
     0.0000   0.0000   0.0000   0.0000   0.0000   0.0000   0.0000   0.0000
     0.0000   0.0000   0.0000   0.0000   0.0000   0.0000   0.0000   0.0000
     0.0000   0.0000   0.0000   0.0000   0.0000   0.0000   0.0000   0.0000
     0.0000   0.0000   0.0000   0.0000   0.0000   0.0000   0.0000   0.0000
     0.0000   0.0000   0.0000   0.0000   0.0000   0.0000   0.0000   0.0000
     0.0000   0.0000   0.0000   0.0000   0.0000   0.0000   0.0000   0.0000
     0.0000   0.0000   0.0000   0.0000   0.0000   0.0000   0.0000   0.0000
     0.0000   0.0000   0.0000   0.0000   0.0000   0.0000   0.0000   0.0000
     0.0000   0.0000   0.0000   0.0000   0.0000   0.0000   0.0000   0.0000
     0.0000   0.0000   0.0000   0.0000   0.0000   0.0000   0.0000   0.0000

          k = 0.0000-0.5774 0.0000 ( 20610 PWs)   bands (ev):

   -61.8704 -36.2821 -36.0306 -35.9563 -13.3972 -13.2491  -7.1216  -6.1118
    -5.3447  -4.3969  -3.0876  -2.0904  -1.8417   1.1882   1.7011   2.7534
     3.2751   4.9745   6.6357   7.1122   7.8775   8.5519   9.2981   9.6848
     9.8993  10.1083  10.2502  10.4282  10.7901  10.9318  11.8903  12.2417
    12.6598  13.1537  14.4215  14.4280  14.5569  15.1746  16.0078  16.1163
    16.8355  16.8545  17.0235  17.5912  17.7028  18.7055  18.7935  19.3631
    19.3698  19.8436  20.1159  20.1625  20.1771  20.3450  20.4079  21.2681
    21.3756  21.5023  21.8541  22.0454  23.0665  23.1160  23.2770  23.4524
    23.6224  23.8035  24.1382  24.3806  24.7103  24.9756  26.1316  26.5173
    26.6013  27.0891  27.0918  27.6926  28.2059  29.3090  29.3663  29.6783
    29.7454  30.1445  31.0113  31.0164  31.2573  31.5425  31.5760  32.3925
    32.4691  33.0045  33.1545  33.9633  34.2661  34.5903  35.2437  35.7278
    36.0712  36.2965  36.3399  37.0171  37.0942  37.3264  37.6443  37.8238
    38.3291  38.8553  39.0444  39.5407  39.6441  39.7202  39.7863  39.8949
    40.1484  40.2760  40.3669  40.4740  40.5480  40.7462  40.7604  40.8685
    40.9709  41.2162  41.3650  41.4135  41.4270  41.4498  42.1254  42.3019
    42.4227  42.6680  42.7617  43.2081  43.2355  43.3460  43.3834  43.8441
    44.5488  44.6427  44.6431  44.6545  45.0468  45.0887  45.2894  45.5187
    45.5244  46.3962  46.6149  46.6897  46.8270  47.0999  47.3201  47.4134
    47.7557  47.9909  48.2705  48.5618  48.6368  48.7469  48.9465  49.1274
    49.5011  49.6127  49.6192  50.2645  50.3872  50.4317  50.5323  50.7374
    50.7844  50.8377  51.1430  51.1553  51.3780  51.5483  51.7270  51.7283
    52.1939  52.2284  52.6414  52.7260  52.7638  53.1685  53.2295  53.2503
    53.6369  53.9726  53.9781  54.0947  54.3920  54.4720  55.0786  55.1377
    55.3403  55.6885  55.8199  56.3222  56.5033  56.7195  56.8256  57.0744

     occupation numbers 
     1.0000   1.0000   1.0000   1.0000   1.0000   1.0000   1.0000   1.0000
     1.0000   1.0000   1.0000   1.0000   1.0000   0.0000   0.0000   0.0000
     0.0000   0.0000   0.0000   0.0000   0.0000   0.0000   0.0000   0.0000
     0.0000   0.0000   0.0000   0.0000   0.0000   0.0000   0.0000   0.0000
     0.0000   0.0000   0.0000   0.0000   0.0000   0.0000   0.0000   0.0000
     0.0000   0.0000   0.0000   0.0000   0.0000   0.0000   0.0000   0.0000
     0.0000   0.0000   0.0000   0.0000   0.0000   0.0000   0.0000   0.0000
     0.0000   0.0000   0.0000   0.0000   0.0000   0.0000   0.0000   0.0000
     0.0000   0.0000   0.0000   0.0000   0.0000   0.0000   0.0000   0.0000
     0.0000   0.0000   0.0000   0.0000   0.0000   0.0000   0.0000   0.0000
     0.0000   0.0000   0.0000   0.0000   0.0000   0.0000   0.0000   0.0000
     0.0000   0.0000   0.0000   0.0000   0.0000   0.0000   0.0000   0.0000
     0.0000   0.0000   0.0000   0.0000   0.0000   0.0000   0.0000   0.0000
     0.0000   0.0000   0.0000   0.0000   0.0000   0.0000   0.0000   0.0000
     0.0000   0.0000   0.0000   0.0000   0.0000   0.0000   0.0000   0.0000
     0.0000   0.0000   0.0000   0.0000   0.0000   0.0000   0.0000   0.0000
     0.0000   0.0000   0.0000   0.0000   0.0000   0.0000   0.0000   0.0000
     0.0000   0.0000   0.0000   0.0000   0.0000   0.0000   0.0000   0.0000
     0.0000   0.0000   0.0000   0.0000   0.0000   0.0000   0.0000   0.0000
     0.0000   0.0000   0.0000   0.0000   0.0000   0.0000   0.0000   0.0000
     0.0000   0.0000   0.0000   0.0000   0.0000   0.0000   0.0000   0.0000
     0.0000   0.0000   0.0000   0.0000   0.0000   0.0000   0.0000   0.0000
     0.0000   0.0000   0.0000   0.0000   0.0000   0.0000   0.0000   0.0000
     0.0000   0.0000   0.0000   0.0000   0.0000   0.0000   0.0000   0.0000
     0.0000   0.0000   0.0000   0.0000   0.0000   0.0000   0.0000   0.0000

          k = 0.1667 0.2887 0.0000 ( 20715 PWs)   bands (ev):

   -61.8870 -36.1065 -36.0634 -35.9406 -14.2759 -13.5778  -6.2447  -5.0435
    -4.9464  -4.4449  -3.1578  -2.1985  -1.9943   0.7753   1.3926   1.5576
     3.1462   5.9475   6.0797   6.8081   7.5698   7.8331   8.3979   8.4196
     8.9932   9.6375  10.3114  10.6152  10.9380  11.2574  11.3173  13.0214
    13.4632  13.8609  14.1115  15.8321  16.1054  16.3471  16.4101  16.4526
    16.7624  17.0336  17.1246  17.5990  17.9679  18.1622  18.7267  18.9799
    19.1330  19.9482  20.4603  20.7288  21.0041  21.1646  21.8370  22.2378
    22.4463  22.5014  23.3598  23.4740  23.9559  24.0565  24.3217  25.3056
    25.4180  26.0770  26.1544  26.4561  26.4911  26.7003  27.0881  27.1509
    27.2471  27.5859  27.6141  27.7860  27.9738  28.3669  28.3959  28.6278
    29.1918  29.2323  29.8402  30.1170  30.1651  30.6552  30.9835  31.3409
    31.4924  32.0564  32.0690  32.3539  33.0074  33.3732  33.3977  33.4949
    33.7625  34.1703  34.6128  35.0715  35.2747  35.5627  35.6046  36.1551
    36.3591  36.5338  36.7680  36.9733  37.0249  37.0562  37.4860  37.6639
    37.8668  37.9048  38.2973  38.3453  38.4696  39.1398  39.2418  39.4510
    39.8706  39.8813  39.9473  40.4134  40.4915  40.8390  41.2970  41.3091
    41.6309  41.7867  42.2431  42.7923  42.8099  43.3099  43.3978  43.6397
    43.7652  44.2606  44.6569  44.6632  44.9400  45.1759  45.5668  45.8329
    46.2183  46.2688  46.6330  46.6982  46.9454  47.1692  47.2893  47.7124
    47.8270  47.9404  47.9782  48.3496  48.5170  48.6676  48.9154  49.2614
    49.2968  49.8085  50.1436  50.2606  50.6792  50.9371  51.2014  51.2884
    51.6057  51.7461  51.9117  51.9957  52.2458  52.8133  53.2254  53.3568
    53.8079  53.8510  54.3106  54.4151  54.5353  54.7743  54.8455  55.1917
    55.8949  56.0570  56.2658  56.3543  56.5002  56.7130  56.9014  57.0331
    57.2362  57.4226  57.5852  57.6510  57.7989  57.8897  57.9911  58.7324

     occupation numbers 
     1.0000   1.0000   1.0000   1.0000   1.0000   1.0000   1.0000   1.0000
     1.0000   1.0000   1.0000   1.0000   1.0000   0.0000   0.0000   0.0000
     0.0000   0.0000   0.0000   0.0000   0.0000   0.0000   0.0000   0.0000
     0.0000   0.0000   0.0000   0.0000   0.0000   0.0000   0.0000   0.0000
     0.0000   0.0000   0.0000   0.0000   0.0000   0.0000   0.0000   0.0000
     0.0000   0.0000   0.0000   0.0000   0.0000   0.0000   0.0000   0.0000
     0.0000   0.0000   0.0000   0.0000   0.0000   0.0000   0.0000   0.0000
     0.0000   0.0000   0.0000   0.0000   0.0000   0.0000   0.0000   0.0000
     0.0000   0.0000   0.0000   0.0000   0.0000   0.0000   0.0000   0.0000
     0.0000   0.0000   0.0000   0.0000   0.0000   0.0000   0.0000   0.0000
     0.0000   0.0000   0.0000   0.0000   0.0000   0.0000   0.0000   0.0000
     0.0000   0.0000   0.0000   0.0000   0.0000   0.0000   0.0000   0.0000
     0.0000   0.0000   0.0000   0.0000   0.0000   0.0000   0.0000   0.0000
     0.0000   0.0000   0.0000   0.0000   0.0000   0.0000   0.0000   0.0000
     0.0000   0.0000   0.0000   0.0000   0.0000   0.0000   0.0000   0.0000
     0.0000   0.0000   0.0000   0.0000   0.0000   0.0000   0.0000   0.0000
     0.0000   0.0000   0.0000   0.0000   0.0000   0.0000   0.0000   0.0000
     0.0000   0.0000   0.0000   0.0000   0.0000   0.0000   0.0000   0.0000
     0.0000   0.0000   0.0000   0.0000   0.0000   0.0000   0.0000   0.0000
     0.0000   0.0000   0.0000   0.0000   0.0000   0.0000   0.0000   0.0000
     0.0000   0.0000   0.0000   0.0000   0.0000   0.0000   0.0000   0.0000
     0.0000   0.0000   0.0000   0.0000   0.0000   0.0000   0.0000   0.0000
     0.0000   0.0000   0.0000   0.0000   0.0000   0.0000   0.0000   0.0000
     0.0000   0.0000   0.0000   0.0000   0.0000   0.0000   0.0000   0.0000
     0.0000   0.0000   0.0000   0.0000   0.0000   0.0000   0.0000   0.0000

          k = 0.1667 0.4811 0.0000 ( 20655 PWs)   bands (ev):

   -61.8704 -36.2294 -36.0307 -36.0115 -13.4204 -13.2295  -6.6443  -6.2179
    -5.0728  -4.4622  -3.5748  -2.9019  -1.6827   1.1237   1.7430   2.2198
     3.3938   5.8700   7.5059   7.5119   8.3774   8.5214   8.9242   9.3135
     9.5232  10.2193  10.2480  11.4301  11.5080  12.0414  12.4204  12.4645
    12.8156  13.1594  13.3759  14.0237  14.5287  14.7861  15.0964  15.1518
    15.7230  15.8101  16.5241  16.6797  17.1785  17.3883  17.8908  18.0002
    18.4297  19.1671  19.5406  19.8360  20.4008  20.4555  20.9953  21.1905
    21.7876  22.3179  22.3911  23.0792  23.3711  23.8892  24.4460  24.7741
    25.1967  25.4273  25.4340  25.8155  25.8726  26.1019  26.8185  26.8651
    27.5390  27.6006  27.9049  27.9900  28.6323  28.7481  29.1143  29.5734
    29.9683  30.4316  30.9353  31.1291  31.1608  31.9224  31.9404  32.0659
    32.3207  32.7130  32.9133  33.3193  33.5625  33.8159  34.0112  34.4831
    34.6746  34.8965  35.4781  35.8233  36.0483  36.4722  36.6173  36.8279
    36.8380  37.3999  37.4579  37.8966  38.0599  38.5837  38.8271  39.0706
    39.1567  39.5670  39.7263  40.1099  40.3827  40.6001  40.8946  40.9161
    41.3935  41.6089  41.6349  41.7308  41.9790  42.1071  42.5463  42.5938
    42.7368  42.8726  43.2860  43.4709  43.7386  43.9704  44.0585  44.4650
    44.6682  44.9812  45.2221  45.2222  45.6603  45.9363  45.9597  46.1152
    46.2503  46.4068  46.7017  47.0047  47.0173  47.5428  47.5757  47.8255
    47.9146  48.0749  48.3652  48.5983  48.6487  49.0637  49.1385  49.3476
    49.4012  49.6575  49.9568  50.0376  50.3467  50.4431  50.6765  50.7209
    51.2551  51.5331  51.5637  51.8133  51.9215  51.9910  52.4064  52.7374
    53.0308  53.1093  53.4436  53.6317  53.6603  53.8778  54.0042  54.3807
    54.6070  54.6922  55.0498  55.2746  55.5559  55.7910  56.1483  56.3335
    56.4963  56.5679  56.7383  57.0434  57.0606  57.2279  57.4609  57.5017

     occupation numbers 
     1.0000   1.0000   1.0000   1.0000   1.0000   1.0000   1.0000   1.0000
     1.0000   1.0000   1.0000   1.0000   1.0000   0.0000   0.0000   0.0000
     0.0000   0.0000   0.0000   0.0000   0.0000   0.0000   0.0000   0.0000
     0.0000   0.0000   0.0000   0.0000   0.0000   0.0000   0.0000   0.0000
     0.0000   0.0000   0.0000   0.0000   0.0000   0.0000   0.0000   0.0000
     0.0000   0.0000   0.0000   0.0000   0.0000   0.0000   0.0000   0.0000
     0.0000   0.0000   0.0000   0.0000   0.0000   0.0000   0.0000   0.0000
     0.0000   0.0000   0.0000   0.0000   0.0000   0.0000   0.0000   0.0000
     0.0000   0.0000   0.0000   0.0000   0.0000   0.0000   0.0000   0.0000
     0.0000   0.0000   0.0000   0.0000   0.0000   0.0000   0.0000   0.0000
     0.0000   0.0000   0.0000   0.0000   0.0000   0.0000   0.0000   0.0000
     0.0000   0.0000   0.0000   0.0000   0.0000   0.0000   0.0000   0.0000
     0.0000   0.0000   0.0000   0.0000   0.0000   0.0000   0.0000   0.0000
     0.0000   0.0000   0.0000   0.0000   0.0000   0.0000   0.0000   0.0000
     0.0000   0.0000   0.0000   0.0000   0.0000   0.0000   0.0000   0.0000
     0.0000   0.0000   0.0000   0.0000   0.0000   0.0000   0.0000   0.0000
     0.0000   0.0000   0.0000   0.0000   0.0000   0.0000   0.0000   0.0000
     0.0000   0.0000   0.0000   0.0000   0.0000   0.0000   0.0000   0.0000
     0.0000   0.0000   0.0000   0.0000   0.0000   0.0000   0.0000   0.0000
     0.0000   0.0000   0.0000   0.0000   0.0000   0.0000   0.0000   0.0000
     0.0000   0.0000   0.0000   0.0000   0.0000   0.0000   0.0000   0.0000
     0.0000   0.0000   0.0000   0.0000   0.0000   0.0000   0.0000   0.0000
     0.0000   0.0000   0.0000   0.0000   0.0000   0.0000   0.0000   0.0000
     0.0000   0.0000   0.0000   0.0000   0.0000   0.0000   0.0000   0.0000
     0.0000   0.0000   0.0000   0.0000   0.0000   0.0000   0.0000   0.0000

          k = 0.3333 0.5774 0.0000 ( 20736 PWs)   bands (ev):

   -61.8648 -36.1781 -36.1288 -36.0198 -13.1072 -13.0734  -6.7667  -5.9013
    -5.3795  -4.7591  -4.1262  -3.3563  -1.1948   0.5877   1.8746   2.5095
     3.9097   6.0945   6.4000   8.4199   9.3866  10.1377  10.4748  10.6944
    10.7657  11.0873  11.5169  11.6254  11.6632  11.7354  12.0544  12.1333
    12.3632  12.4685  12.4787  12.4857  13.4053  13.8873  13.9859  14.2098
    14.3816  14.3820  15.9032  16.0987  16.4835  16.5716  16.7829  17.2937
    17.6880  18.5962  19.1420  19.3051  19.7656  19.7823  21.1627  21.5505
    22.7116  22.8647  23.0041  23.1760  24.0043  24.1045  24.2949  24.8710
    25.2003  25.2282  26.0918  26.1089  26.4935  27.1054  27.1842  27.2689
    28.6412  28.8144  28.8224  29.0593  29.2325  30.8312  30.8563  30.9098
    31.3411  31.3459  31.6315  31.8488  31.9739  32.1552  32.1617  32.4062
    32.5399  32.9231  32.9398  33.2355  33.2534  33.3464  33.5212  34.0496
    34.4155  34.4364  34.6040  34.9474  35.1709  35.2058  35.5614  35.9745
    36.3373  36.6021  36.6999  37.1625  37.2020  37.2532  37.5083  38.1933
    38.3952  38.4131  38.7016  38.9494  39.0804  39.7743  39.9956  40.4581
    40.6492  41.0223  41.2000  41.3069  41.7109  41.8430  42.0184  42.4921
    43.0177  43.0192  43.0711  43.6771  43.9402  44.2989  44.3085  45.6147
    45.6749  45.7905  45.8005  46.2295  46.7705  46.9401  47.0480  47.8224
    47.8461  48.1450  48.5446  49.4767  49.6138  49.9646  50.0201  50.1584
    50.4833  50.7192  50.7361  50.7402  50.8397  51.1193  51.5675  51.6793
    51.7178  51.8722  52.0012  52.0743  52.1197  52.1674  52.1851  52.2579
    52.2790  52.3448  52.5179  52.5732  52.5847  52.6743  52.7413  52.8755
    53.0698  53.1200  53.2705  53.3956  53.5208  53.5399  53.7146  53.7278
    54.0110  54.2292  54.2906  54.4528  54.7187  54.8858  54.9095  55.1861
    55.1896  55.4248  55.4542  55.4717  55.5965  55.8904  55.9756  56.0081

     occupation numbers 
     1.0000   1.0000   1.0000   1.0000   1.0000   1.0000   1.0000   1.0000
     1.0000   1.0000   1.0000   1.0000   1.0000   0.0000   0.0000   0.0000
     0.0000   0.0000   0.0000   0.0000   0.0000   0.0000   0.0000   0.0000
     0.0000   0.0000   0.0000   0.0000   0.0000   0.0000   0.0000   0.0000
     0.0000   0.0000   0.0000   0.0000   0.0000   0.0000   0.0000   0.0000
     0.0000   0.0000   0.0000   0.0000   0.0000   0.0000   0.0000   0.0000
     0.0000   0.0000   0.0000   0.0000   0.0000   0.0000   0.0000   0.0000
     0.0000   0.0000   0.0000   0.0000   0.0000   0.0000   0.0000   0.0000
     0.0000   0.0000   0.0000   0.0000   0.0000   0.0000   0.0000   0.0000
     0.0000   0.0000   0.0000   0.0000   0.0000   0.0000   0.0000   0.0000
     0.0000   0.0000   0.0000   0.0000   0.0000   0.0000   0.0000   0.0000
     0.0000   0.0000   0.0000   0.0000   0.0000   0.0000   0.0000   0.0000
     0.0000   0.0000   0.0000   0.0000   0.0000   0.0000   0.0000   0.0000
     0.0000   0.0000   0.0000   0.0000   0.0000   0.0000   0.0000   0.0000
     0.0000   0.0000   0.0000   0.0000   0.0000   0.0000   0.0000   0.0000
     0.0000   0.0000   0.0000   0.0000   0.0000   0.0000   0.0000   0.0000
     0.0000   0.0000   0.0000   0.0000   0.0000   0.0000   0.0000   0.0000
     0.0000   0.0000   0.0000   0.0000   0.0000   0.0000   0.0000   0.0000
     0.0000   0.0000   0.0000   0.0000   0.0000   0.0000   0.0000   0.0000
     0.0000   0.0000   0.0000   0.0000   0.0000   0.0000   0.0000   0.0000
     0.0000   0.0000   0.0000   0.0000   0.0000   0.0000   0.0000   0.0000
     0.0000   0.0000   0.0000   0.0000   0.0000   0.0000   0.0000   0.0000
     0.0000   0.0000   0.0000   0.0000   0.0000   0.0000   0.0000   0.0000
     0.0000   0.0000   0.0000   0.0000   0.0000   0.0000   0.0000   0.0000
     0.0000   0.0000   0.0000   0.0000   0.0000   0.0000   0.0000   0.0000

     the Fermi energy is     0.0203 ev
     (compare with:    -0.0853 eV, computed in scf)

     Writing all to output data dir ./tmp/MoS2.save/ :
     XML data file, pseudopotentials, collected wavefunctions

     init_run     :      2.04s CPU      2.40s WALL (       1 calls)
     electrons    :     81.10s CPU     82.16s WALL (       1 calls)

     Called by init_run:
     wfcinit      :      0.00s CPU      0.00s WALL (       1 calls)
     wfcinit:atom :      0.00s CPU      0.00s WALL (       7 calls)
     wfcinit:wfcr :      1.53s CPU      1.55s WALL (       7 calls)
     potinit      :      0.81s CPU      0.81s WALL (       1 calls)
     hinit0       :      0.70s CPU      0.70s WALL (       1 calls)

     Called by electrons:
     c_bands      :     81.09s CPU     82.13s WALL (       1 calls)
     v_of_rho     :      0.03s CPU      0.03s WALL (       1 calls)
     v_h          :      0.00s CPU      0.00s WALL (       1 calls)
     v_xc         :      0.03s CPU      0.03s WALL (       1 calls)

     Called by c_bands:
     init_us_2    :      0.00s CPU      0.00s WALL (       7 calls)
     cegterg      :     79.48s CPU     80.46s WALL (      16 calls)

     Called by sum_band:

     Called by *egterg:
     cdiaghg      :     43.35s CPU     43.64s WALL (     271 calls)
     cegterg:over :      6.40s CPU      6.49s WALL (     264 calls)
     cegterg:upda :      3.15s CPU      3.17s WALL (     264 calls)
     cegterg:last :      5.73s CPU      5.80s WALL (     150 calls)
     cdiaghg:chol :      0.86s CPU      0.94s WALL (     271 calls)
     cdiaghg:inve :      0.65s CPU      0.66s WALL (     271 calls)
     cdiaghg:para :      7.21s CPU      7.37s WALL (     542 calls)
     h_psi        :     21.59s CPU     22.10s WALL (     287 calls)
     g_psi        :      0.06s CPU      0.06s WALL (     264 calls)

     Called by h_psi:
     h_psi:calbec :      0.53s CPU      0.54s WALL (     287 calls)
     vloc_psi     :     20.59s CPU     21.10s WALL (     287 calls)
                                        0.00s GPU  (     287 calls)
     add_vuspsi   :      0.34s CPU      0.35s WALL (     287 calls)

     General routines
     calbec       :      0.53s CPU      0.54s WALL (     287 calls)
     fft          :      0.68s CPU      0.69s WALL (      12 calls)
     ffts         :      0.61s CPU      0.61s WALL (       1 calls)
     fftw         :     19.02s CPU     19.48s WALL (   63202 calls)
     interpolate  :      0.61s CPU      0.61s WALL (       1 calls)
     davcio       :      0.01s CPU      0.03s WALL (      14 calls)

     Parallel routines

     PWSCF        :   1m25.11s CPU   1m28.04s WALL


   This run was terminated on:  16:58:36   5Mar2026            

=------------------------------------------------------------------------------=
   JOB DONE.
=------------------------------------------------------------------------------=
