
     Program PHONON v.7.3.1 starts on 24Feb2026 at 10:24: 8 

     This program is part of the open-source Quantum ESPRESSO suite
     for quantum simulation of materials; please cite
         "P. Giannozzi et al., J. Phys.:Condens. Matter 21 395502 (2009);
         "P. Giannozzi et al., J. Phys.:Condens. Matter 29 465901 (2017);
         "P. Giannozzi et al., J. Chem. Phys. 152 154105 (2020);
          URL http://www.quantum-espresso.org", 
     in publications or presentations arising from this work. More details at
     http://www.quantum-espresso.org/quote

     Parallel version (MPI), running on    64 processors

     MPI processes distributed on     2 nodes
     240550 MiB available memory on the printing compute node when the environment starts

     Waiting for input...
     Reading input from standard input
      Title line not specified: using 'default'.

     Reading xml data from directory:

     ./_ph0/MoS2.save/
     Message from routine qexsd_readschema :
     input info not found or not readable in xml file

     R & G space division:  proc/nbgrp/npool/nimage =      64
     Subspace diagonalization in iterative solution of the eigenvalue problem:
     a serial algorithm will be used


     IMPORTANT: XC functional enforced from input :
     Exchange-correlation= PBESOL
                           (   1   4  10   8   0   0   0)
     Any further DFT definition will be discarded
     Please, verify this is what you really want


     Parallelization info
     --------------------
     sticks:   dense  smooth     PW     G-vecs:    dense   smooth      PW
     Min          30      12      3                 7282     1826     295
     Max          31      13      4                 7319     1855     340
     Sum        1945     769    241               467365   117995   20371

     Using Slab Decomposition

 ----2D----2D----2D----2D----2D----2D----2D----2D----2D----2D----2D----2D
  The code is running with the 2D cutoff
  Please refer to:
  Sohier, T., Calandra, M., & Mauri, F. (2017), 
  Density functional perturbation theory for gated two-dimensional heterostructures:
  Theoretical developments and application to flexural phonons in graphene.
  Physical Review B, 96(7), 75448. https://doi.org/10.1103/PhysRevB.96.075448
 ----2D----2D----2D----2D----2D----2D----2D----2D----2D----2D----2D----2D
     read_file_ph: Wavefunctions in collected format not needed

     Saving dvscf to file. Distribute only q points, not irreducible representations.
        3 /   7 q-points for this run, from  5 to  7:
       N       xq(1)         xq(2)         xq(3) 
       1   0.000000000   0.000000000   0.000000000
       2  -0.000000001  -0.192450000   0.000000000
       3  -0.000000003  -0.384900000   0.000000000
       4   0.000000004   0.577350000   0.000000000
       5  -0.166667000  -0.288675000   0.000000000
       6  -0.166667000  -0.481125000   0.000000000
       7  -0.333333000  -0.577350000   0.000000000


     Calculation of q =   -0.1666670  -0.2886750   0.0000000

     Bands found: reading from ./_ph0/

     Reading xml data from directory:

     ./_ph0/MoS2.save/
     Message from routine qexsd_readschema :
     input info not found or not readable in xml file

     IMPORTANT: XC functional enforced from input :
     Exchange-correlation= PBESOL
                           (   1   4  10   8   0   0   0)
     Any further DFT definition will be discarded
     Please, verify this is what you really want


     Parallelization info
     --------------------
     sticks:   dense  smooth     PW     G-vecs:    dense   smooth      PW
     Min          30      12      3                 7282     1826     295
     Max          31      13      4                 7319     1855     340
     Sum        1945     769    241               467365   117995   20371

     Using Slab Decomposition

 ----2D----2D----2D----2D----2D----2D----2D----2D----2D----2D----2D----2D
  The code is running with the 2D cutoff
  Please refer to:
  Sohier, T., Calandra, M., & Mauri, F. (2017), 
  Density functional perturbation theory for gated two-dimensional heterostructures:
  Theoretical developments and application to flexural phonons in graphene.
  Physical Review B, 96(7), 75448. https://doi.org/10.1103/PhysRevB.96.075448
 ----2D----2D----2D----2D----2D----2D----2D----2D----2D----2D----2D----2D
     read_file_new: Wavefunctions not in collected format?!?
     read_file: Wavefunctions in collected format not available

     Restart in Phonon calculation

     default                                                                    

     bravais-lattice index     =            4
     lattice parameter (alat)  =       5.9413  a.u.
     unit-cell volume          =    1222.6725 (a.u.)^3
     number of atoms/cell      =            3
     number of atomic types    =            2
     kinetic-energy cut-off    =      80.0000  Ry
     charge density cut-off    =     800.0000  Ry
     convergence threshold     =      1.0E-15
     beta                      =       0.4000
     number of iterations used =            4
     Exchange-correlation= PBESOL
                           (   1   4  10   8   0   0   0)


     celldm(1)=    5.94125  celldm(2)=    0.00000  celldm(3)=    6.73201
     celldm(4)=    0.00000  celldm(5)=    0.00000  celldm(6)=    0.00000

     crystal axes: (cart. coord. in units of alat)
               a(1) = (  1.0000  0.0000  0.0000 )  
               a(2) = ( -0.5000  0.8660  0.0000 )  
               a(3) = (  0.0000  0.0000  6.7320 )  

     reciprocal axes: (cart. coord. in units 2 pi/alat)
               b(1) = (  1.0000  0.5774 -0.0000 )  
               b(2) = (  0.0000  1.1547  0.0000 )  
               b(3) = (  0.0000 -0.0000  0.1485 )  


     Atoms inside the unit cell: 

     Cartesian axes

     site n.  atom      mass           positions (alat units)
        1  Mo     95.9500   tau(    1) = (    0.00000    0.57735    3.36601  )
        2  S      32.0650   tau(    2) = (    0.50000    0.28868    3.86143  )
        3  S      32.0650   tau(    3) = (    0.50000    0.28868    2.87059  )

     Computing dynamical matrix for 
                    q = (  -0.1666670  -0.2886750   0.0000000 )

      2 Sym.Ops. (no q -> -q+G )

                                    s                        frac. trans.

      isym =  1     identity                                     

 cryst.   s( 1) = (     1          0          0      )
                  (     0          1          0      )
                  (     0          0          1      )

 cart.    s( 1) = (  1.0000000  0.0000000  0.0000000 )
                  (  0.0000000  1.0000000  0.0000000 )
                  (  0.0000000  0.0000000  1.0000000 )


      isym =  2     inv. 180 deg rotation - cart. axis [0,0,1]   

 cryst.   s( 2) = (     1          0          0      )
                  (     0          1          0      )
                  (     0          0         -1      )

 cart.    s( 2) = (  1.0000000  0.0000000  0.0000000 )
                  (  0.0000000  1.0000000  0.0000000 )
                  (  0.0000000  0.0000000 -1.0000000 )


     G cutoff =  715.2972  (   7300 G-vectors)     FFT grid: ( 54, 54,375)
     G cutoff =  286.1189  (   1848 G-vectors)  smooth grid: ( 36, 36,240)
     number of k points=   648
                       cart. coord. in units 2pi/alat
        k(    1) = (   0.0000000   0.0000000   0.0000000), wk =   0.0061728
        k(    2) = (  -0.1666670  -0.2886750   0.0000000), wk =   0.0000000
        k(    3) = (   0.0000000   0.0641500   0.0000000), wk =   0.0061728
        k(    4) = (  -0.1666670  -0.2245250   0.0000000), wk =   0.0000000
        k(    5) = (   0.0000000   0.1283001   0.0000000), wk =   0.0061728
        k(    6) = (  -0.1666670  -0.1603749   0.0000000), wk =   0.0000000
        k(    7) = (   0.0000000   0.1924501   0.0000000), wk =   0.0061728
        k(    8) = (  -0.1666670  -0.0962249   0.0000000), wk =   0.0000000
        k(    9) = (   0.0000000   0.2566001   0.0000000), wk =   0.0061728
        k(   10) = (  -0.1666670  -0.0320749   0.0000000), wk =   0.0000000
        k(   11) = (   0.0000000   0.3207501   0.0000000), wk =   0.0061728
        k(   12) = (  -0.1666670   0.0320751   0.0000000), wk =   0.0000000
        k(   13) = (   0.0000000   0.3849002   0.0000000), wk =   0.0061728
        k(   14) = (  -0.1666670   0.0962252   0.0000000), wk =   0.0000000
        k(   15) = (   0.0000000   0.4490502   0.0000000), wk =   0.0061728
        k(   16) = (  -0.1666670   0.1603752   0.0000000), wk =   0.0000000
        k(   17) = (   0.0000000   0.5132002   0.0000000), wk =   0.0061728
        k(   18) = (  -0.1666670   0.2245252   0.0000000), wk =   0.0000000
        k(   19) = (   0.0000000  -0.5773503   0.0000000), wk =   0.0061728
        k(   20) = (  -0.1666670  -0.8660253   0.0000000), wk =   0.0000000
        k(   21) = (   0.0555556   0.0962250   0.0000000), wk =   0.0061728
        k(   22) = (  -0.1111114  -0.1924500   0.0000000), wk =   0.0000000
        k(   23) = (   0.0555556   0.1603751   0.0000000), wk =   0.0061728
        k(   24) = (  -0.1111114  -0.1282999   0.0000000), wk =   0.0000000
        k(   25) = (   0.0555556   0.2245251   0.0000000), wk =   0.0061728
        k(   26) = (  -0.1111114  -0.0641499   0.0000000), wk =   0.0000000
        k(   27) = (   0.0555556   0.2886751   0.0000000), wk =   0.0061728
        k(   28) = (  -0.1111114   0.0000001   0.0000000), wk =   0.0000000
        k(   29) = (   0.0555556   0.3528252   0.0000000), wk =   0.0061728
        k(   30) = (  -0.1111114   0.0641502   0.0000000), wk =   0.0000000
        k(   31) = (   0.0555556   0.4169752   0.0000000), wk =   0.0061728
        k(   32) = (  -0.1111114   0.1283002   0.0000000), wk =   0.0000000
        k(   33) = (   0.0555556   0.4811252   0.0000000), wk =   0.0061728
        k(   34) = (  -0.1111114   0.1924502   0.0000000), wk =   0.0000000
        k(   35) = (   0.0555556   0.5452753   0.0000000), wk =   0.0061728
        k(   36) = (  -0.1111114   0.2566003   0.0000000), wk =   0.0000000
        k(   37) = (   0.1111111   0.1924501   0.0000000), wk =   0.0061728
        k(   38) = (  -0.0555559  -0.0962249   0.0000000), wk =   0.0000000
        k(   39) = (   0.1111111   0.2566001   0.0000000), wk =   0.0061728
        k(   40) = (  -0.0555559  -0.0320749   0.0000000), wk =   0.0000000
        k(   41) = (   0.1111111   0.3207501   0.0000000), wk =   0.0061728
        k(   42) = (  -0.0555559   0.0320751   0.0000000), wk =   0.0000000
        k(   43) = (   0.1111111   0.3849002   0.0000000), wk =   0.0061728
        k(   44) = (  -0.0555559   0.0962252   0.0000000), wk =   0.0000000
        k(   45) = (   0.1111111   0.4490502   0.0000000), wk =   0.0061728
        k(   46) = (  -0.0555559   0.1603752   0.0000000), wk =   0.0000000
        k(   47) = (   0.1111111   0.5132002   0.0000000), wk =   0.0061728
        k(   48) = (  -0.0555559   0.2245252   0.0000000), wk =   0.0000000
        k(   49) = (   0.1111111   0.5773503   0.0000000), wk =   0.0061728
        k(   50) = (  -0.0555559   0.2886753   0.0000000), wk =   0.0000000
        k(   51) = (   0.1666667   0.2886751   0.0000000), wk =   0.0061728
        k(   52) = (  -0.0000003   0.0000001   0.0000000), wk =   0.0000000
        k(   53) = (   0.1666667   0.3528252   0.0000000), wk =   0.0061728
        k(   54) = (  -0.0000003   0.0641502   0.0000000), wk =   0.0000000
        k(   55) = (   0.1666667   0.4169752   0.0000000), wk =   0.0061728
        k(   56) = (  -0.0000003   0.1283002   0.0000000), wk =   0.0000000
        k(   57) = (   0.1666667   0.4811252   0.0000000), wk =   0.0061728
        k(   58) = (  -0.0000003   0.1924502   0.0000000), wk =   0.0000000
        k(   59) = (   0.1666667   0.5452753   0.0000000), wk =   0.0061728
        k(   60) = (  -0.0000003   0.2566003   0.0000000), wk =   0.0000000
        k(   61) = (   0.2222222   0.3849002   0.0000000), wk =   0.0061728
        k(   62) = (   0.0555552   0.0962252   0.0000000), wk =   0.0000000
        k(   63) = (   0.2222222   0.4490502   0.0000000), wk =   0.0061728
        k(   64) = (   0.0555552   0.1603752   0.0000000), wk =   0.0000000
        k(   65) = (   0.2222222   0.5132002   0.0000000), wk =   0.0061728
        k(   66) = (   0.0555552   0.2245252   0.0000000), wk =   0.0000000
        k(   67) = (   0.2222222   0.5773503   0.0000000), wk =   0.0061728
        k(   68) = (   0.0555552   0.2886753   0.0000000), wk =   0.0000000
        k(   69) = (   0.2777778   0.4811252   0.0000000), wk =   0.0061728
        k(   70) = (   0.1111108   0.1924502   0.0000000), wk =   0.0000000
        k(   71) = (   0.2777778   0.5452753   0.0000000), wk =   0.0061728
        k(   72) = (   0.1111108   0.2566003   0.0000000), wk =   0.0000000
        k(   73) = (   0.3333333   0.5773503   0.0000000), wk =   0.0061728
        k(   74) = (   0.1666663   0.2886753   0.0000000), wk =   0.0000000
        k(   75) = (   0.0555556  -0.0320750   0.0000000), wk =   0.0061728
        k(   76) = (  -0.1111114  -0.3207500   0.0000000), wk =   0.0000000
        k(   77) = (  -0.0555556  -0.0320750   0.0000000), wk =   0.0061728
        k(   78) = (  -0.2222226  -0.3207500   0.0000000), wk =   0.0000000
        k(   79) = (   0.0000000  -0.0641500   0.0000000), wk =   0.0061728
        k(   80) = (  -0.1666670  -0.3528250   0.0000000), wk =   0.0000000
        k(   81) = (  -0.0555556   0.0320750   0.0000000), wk =   0.0061728
        k(   82) = (  -0.2222226  -0.2566000   0.0000000), wk =   0.0000000
        k(   83) = (   0.0555556   0.0320750   0.0000000), wk =   0.0061728
        k(   84) = (  -0.1111114  -0.2566000   0.0000000), wk =   0.0000000
        k(   85) = (   0.1111111  -0.0641500   0.0000000), wk =   0.0061728
        k(   86) = (  -0.0555559  -0.3528250   0.0000000), wk =   0.0000000
        k(   87) = (  -0.1111111  -0.0641500   0.0000000), wk =   0.0061728
        k(   88) = (  -0.2777781  -0.3528250   0.0000000), wk =   0.0000000
        k(   89) = (   0.0000000  -0.1283001   0.0000000), wk =   0.0061728
        k(   90) = (  -0.1666670  -0.4169751   0.0000000), wk =   0.0000000
        k(   91) = (  -0.1111111   0.0641500   0.0000000), wk =   0.0061728
        k(   92) = (  -0.2777781  -0.2245250   0.0000000), wk =   0.0000000
        k(   93) = (   0.1111111   0.0641500   0.0000000), wk =   0.0061728
        k(   94) = (  -0.0555559  -0.2245250   0.0000000), wk =   0.0000000
        k(   95) = (   0.1666667  -0.0962250   0.0000000), wk =   0.0061728
        k(   96) = (  -0.0000003  -0.3849000   0.0000000), wk =   0.0000000
        k(   97) = (  -0.1666667  -0.0962250   0.0000000), wk =   0.0061728
        k(   98) = (  -0.3333337  -0.3849000   0.0000000), wk =   0.0000000
        k(   99) = (   0.0000000  -0.1924501   0.0000000), wk =   0.0061728
        k(  100) = (  -0.1666670  -0.4811251   0.0000000), wk =   0.0000000
        k(  101) = (  -0.1666667   0.0962250   0.0000000), wk =   0.0061728
        k(  102) = (  -0.3333337  -0.1924500   0.0000000), wk =   0.0000000
        k(  103) = (   0.1666667   0.0962250   0.0000000), wk =   0.0061728
        k(  104) = (  -0.0000003  -0.1924500   0.0000000), wk =   0.0000000
        k(  105) = (   0.2222222  -0.1283001   0.0000000), wk =   0.0061728
        k(  106) = (   0.0555552  -0.4169751   0.0000000), wk =   0.0000000
        k(  107) = (  -0.2222222  -0.1283001   0.0000000), wk =   0.0061728
        k(  108) = (  -0.3888892  -0.4169751   0.0000000), wk =   0.0000000
        k(  109) = (   0.0000000  -0.2566001   0.0000000), wk =   0.0061728
        k(  110) = (  -0.1666670  -0.5452751   0.0000000), wk =   0.0000000
        k(  111) = (  -0.2222222   0.1283001   0.0000000), wk =   0.0061728
        k(  112) = (  -0.3888892  -0.1603749   0.0000000), wk =   0.0000000
        k(  113) = (   0.2222222   0.1283001   0.0000000), wk =   0.0061728
        k(  114) = (   0.0555552  -0.1603749   0.0000000), wk =   0.0000000
        k(  115) = (   0.2777778  -0.1603751   0.0000000), wk =   0.0061728
        k(  116) = (   0.1111108  -0.4490501   0.0000000), wk =   0.0000000
        k(  117) = (  -0.2777778  -0.1603751   0.0000000), wk =   0.0061728
        k(  118) = (  -0.4444448  -0.4490501   0.0000000), wk =   0.0000000
        k(  119) = (   0.0000000  -0.3207501   0.0000000), wk =   0.0061728
        k(  120) = (  -0.1666670  -0.6094251   0.0000000), wk =   0.0000000
        k(  121) = (  -0.2777778   0.1603751   0.0000000), wk =   0.0061728
        k(  122) = (  -0.4444448  -0.1282999   0.0000000), wk =   0.0000000
        k(  123) = (   0.2777778   0.1603751   0.0000000), wk =   0.0061728
        k(  124) = (   0.1111108  -0.1282999   0.0000000), wk =   0.0000000
        k(  125) = (   0.3333333  -0.1924501   0.0000000), wk =   0.0061728
        k(  126) = (   0.1666663  -0.4811251   0.0000000), wk =   0.0000000
        k(  127) = (  -0.3333333  -0.1924501   0.0000000), wk =   0.0061728
        k(  128) = (  -0.5000003  -0.4811251   0.0000000), wk =   0.0000000
        k(  129) = (   0.0000000  -0.3849002   0.0000000), wk =   0.0061728
        k(  130) = (  -0.1666670  -0.6735752   0.0000000), wk =   0.0000000
        k(  131) = (  -0.3333333   0.1924501   0.0000000), wk =   0.0061728
        k(  132) = (  -0.5000003  -0.0962249   0.0000000), wk =   0.0000000
        k(  133) = (   0.3333333   0.1924501   0.0000000), wk =   0.0061728
        k(  134) = (   0.1666663  -0.0962249   0.0000000), wk =   0.0000000
        k(  135) = (   0.3888889  -0.2245251   0.0000000), wk =   0.0061728
        k(  136) = (   0.2222219  -0.5132001   0.0000000), wk =   0.0000000
        k(  137) = (  -0.3888889  -0.2245251   0.0000000), wk =   0.0061728
        k(  138) = (  -0.5555559  -0.5132001   0.0000000), wk =   0.0000000
        k(  139) = (   0.0000000  -0.4490502   0.0000000), wk =   0.0061728
        k(  140) = (  -0.1666670  -0.7377252   0.0000000), wk =   0.0000000
        k(  141) = (  -0.3888889   0.2245251   0.0000000), wk =   0.0061728
        k(  142) = (  -0.5555559  -0.0641499   0.0000000), wk =   0.0000000
        k(  143) = (   0.3888889   0.2245251   0.0000000), wk =   0.0061728
        k(  144) = (   0.2222219  -0.0641499   0.0000000), wk =   0.0000000
        k(  145) = (   0.4444444  -0.2566001   0.0000000), wk =   0.0061728
        k(  146) = (   0.2777774  -0.5452751   0.0000000), wk =   0.0000000
        k(  147) = (  -0.4444444  -0.2566001   0.0000000), wk =   0.0061728
        k(  148) = (  -0.6111114  -0.5452751   0.0000000), wk =   0.0000000
        k(  149) = (   0.0000000  -0.5132002   0.0000000), wk =   0.0061728
        k(  150) = (  -0.1666670  -0.8018752   0.0000000), wk =   0.0000000
        k(  151) = (  -0.4444444   0.2566001   0.0000000), wk =   0.0061728
        k(  152) = (  -0.6111114  -0.0320749   0.0000000), wk =   0.0000000
        k(  153) = (   0.4444444   0.2566001   0.0000000), wk =   0.0061728
        k(  154) = (   0.2777774  -0.0320749   0.0000000), wk =   0.0000000
        k(  155) = (  -0.5000000   0.2886751   0.0000000), wk =   0.0061728
        k(  156) = (  -0.6666670   0.0000001   0.0000000), wk =   0.0000000
        k(  157) = (   0.5000000   0.2886751   0.0000000), wk =   0.0061728
        k(  158) = (   0.3333330   0.0000001   0.0000000), wk =   0.0000000
        k(  159) = (  -0.0555556   0.0962250   0.0000000), wk =   0.0061728
        k(  160) = (  -0.2222226  -0.1924500   0.0000000), wk =   0.0000000
        k(  161) = (   0.0555556  -0.0962250   0.0000000), wk =   0.0061728
        k(  162) = (  -0.1111114  -0.3849000   0.0000000), wk =   0.0000000
        k(  163) = (  -0.1111111   0.0000000   0.0000000), wk =   0.0061728
        k(  164) = (  -0.2777781  -0.2886750   0.0000000), wk =   0.0000000
        k(  165) = (  -0.0555556  -0.0962250   0.0000000), wk =   0.0061728
        k(  166) = (  -0.2222226  -0.3849000   0.0000000), wk =   0.0000000
        k(  167) = (   0.1111111  -0.0000000   0.0000000), wk =   0.0061728
        k(  168) = (  -0.0555559  -0.2886750   0.0000000), wk =   0.0000000
        k(  169) = (  -0.0555556   0.1603751   0.0000000), wk =   0.0061728
        k(  170) = (  -0.2222226  -0.1282999   0.0000000), wk =   0.0000000
        k(  171) = (   0.1111111  -0.1283001   0.0000000), wk =   0.0061728
        k(  172) = (  -0.0555559  -0.4169751   0.0000000), wk =   0.0000000
        k(  173) = (  -0.1666667  -0.0320750   0.0000000), wk =   0.0061728
        k(  174) = (  -0.3333337  -0.3207500   0.0000000), wk =   0.0000000
        k(  175) = (  -0.1111111  -0.1283001   0.0000000), wk =   0.0061728
        k(  176) = (  -0.2777781  -0.4169751   0.0000000), wk =   0.0000000
        k(  177) = (   0.1666667  -0.0320750   0.0000000), wk =   0.0061728
        k(  178) = (  -0.0000003  -0.3207500   0.0000000), wk =   0.0000000
        k(  179) = (  -0.0555556  -0.1603751   0.0000000), wk =   0.0061728
        k(  180) = (  -0.2222226  -0.4490501   0.0000000), wk =   0.0000000
        k(  181) = (   0.0555556  -0.1603751   0.0000000), wk =   0.0061728
        k(  182) = (  -0.1111114  -0.4490501   0.0000000), wk =   0.0000000
        k(  183) = (  -0.1111111   0.1283001   0.0000000), wk =   0.0061728
        k(  184) = (  -0.2777781  -0.1603749   0.0000000), wk =   0.0000000
        k(  185) = (   0.1666667   0.0320750   0.0000000), wk =   0.0061728
        k(  186) = (  -0.0000003  -0.2566000   0.0000000), wk =   0.0000000
        k(  187) = (   0.1111111   0.1283001   0.0000000), wk =   0.0061728
        k(  188) = (  -0.0555559  -0.1603749   0.0000000), wk =   0.0000000
        k(  189) = (  -0.1666667   0.0320750   0.0000000), wk =   0.0061728
        k(  190) = (  -0.3333337  -0.2566000   0.0000000), wk =   0.0000000
        k(  191) = (  -0.0555556   0.2245251   0.0000000), wk =   0.0061728
        k(  192) = (  -0.2222226  -0.0641499   0.0000000), wk =   0.0000000
        k(  193) = (   0.1666667  -0.1603751   0.0000000), wk =   0.0061728
        k(  194) = (  -0.0000003  -0.4490501   0.0000000), wk =   0.0000000
        k(  195) = (  -0.2222222  -0.0641500   0.0000000), wk =   0.0061728
        k(  196) = (  -0.3888892  -0.3528250   0.0000000), wk =   0.0000000
        k(  197) = (  -0.1666667  -0.1603751   0.0000000), wk =   0.0061728
        k(  198) = (  -0.3333337  -0.4490501   0.0000000), wk =   0.0000000
        k(  199) = (   0.2222222  -0.0641500   0.0000000), wk =   0.0061728
        k(  200) = (   0.0555552  -0.3528250   0.0000000), wk =   0.0000000
        k(  201) = (  -0.0555556  -0.2245251   0.0000000), wk =   0.0061728
        k(  202) = (  -0.2222226  -0.5132001   0.0000000), wk =   0.0000000
        k(  203) = (   0.0555556  -0.2245251   0.0000000), wk =   0.0061728
        k(  204) = (  -0.1111114  -0.5132001   0.0000000), wk =   0.0000000
        k(  205) = (  -0.1666667   0.1603751   0.0000000), wk =   0.0061728
        k(  206) = (  -0.3333337  -0.1282999   0.0000000), wk =   0.0000000
        k(  207) = (   0.2222222   0.0641500   0.0000000), wk =   0.0061728
        k(  208) = (   0.0555552  -0.2245250   0.0000000), wk =   0.0000000
        k(  209) = (   0.1666667   0.1603751   0.0000000), wk =   0.0061728
        k(  210) = (  -0.0000003  -0.1282999   0.0000000), wk =   0.0000000
        k(  211) = (  -0.2222222   0.0641500   0.0000000), wk =   0.0061728
        k(  212) = (  -0.3888892  -0.2245250   0.0000000), wk =   0.0000000
        k(  213) = (  -0.0555556   0.2886751   0.0000000), wk =   0.0061728
        k(  214) = (  -0.2222226   0.0000001   0.0000000), wk =   0.0000000
        k(  215) = (   0.2222222  -0.1924501   0.0000000), wk =   0.0061728
        k(  216) = (   0.0555552  -0.4811251   0.0000000), wk =   0.0000000
        k(  217) = (  -0.2777778  -0.0962250   0.0000000), wk =   0.0061728
        k(  218) = (  -0.4444448  -0.3849000   0.0000000), wk =   0.0000000
        k(  219) = (  -0.2222222  -0.1924501   0.0000000), wk =   0.0061728
        k(  220) = (  -0.3888892  -0.4811251   0.0000000), wk =   0.0000000
        k(  221) = (   0.2777778  -0.0962250   0.0000000), wk =   0.0061728
        k(  222) = (   0.1111108  -0.3849000   0.0000000), wk =   0.0000000
        k(  223) = (  -0.0555556  -0.2886751   0.0000000), wk =   0.0061728
        k(  224) = (  -0.2222226  -0.5773501   0.0000000), wk =   0.0000000
        k(  225) = (   0.0555556  -0.2886751   0.0000000), wk =   0.0061728
        k(  226) = (  -0.1111114  -0.5773501   0.0000000), wk =   0.0000000
        k(  227) = (  -0.2222222   0.1924501   0.0000000), wk =   0.0061728
        k(  228) = (  -0.3888892  -0.0962249   0.0000000), wk =   0.0000000
        k(  229) = (   0.2777778   0.0962250   0.0000000), wk =   0.0061728
        k(  230) = (   0.1111108  -0.1924500   0.0000000), wk =   0.0000000
        k(  231) = (   0.2222222   0.1924501   0.0000000), wk =   0.0061728
        k(  232) = (   0.0555552  -0.0962249   0.0000000), wk =   0.0000000
        k(  233) = (  -0.2777778   0.0962250   0.0000000), wk =   0.0061728
        k(  234) = (  -0.4444448  -0.1924500   0.0000000), wk =   0.0000000
        k(  235) = (  -0.0555556   0.3528252   0.0000000), wk =   0.0061728
        k(  236) = (  -0.2222226   0.0641502   0.0000000), wk =   0.0000000
        k(  237) = (   0.2777778  -0.2245251   0.0000000), wk =   0.0061728
        k(  238) = (   0.1111108  -0.5132001   0.0000000), wk =   0.0000000
        k(  239) = (  -0.3333333  -0.1283001   0.0000000), wk =   0.0061728
        k(  240) = (  -0.5000003  -0.4169751   0.0000000), wk =   0.0000000
        k(  241) = (  -0.2777778  -0.2245251   0.0000000), wk =   0.0061728
        k(  242) = (  -0.4444448  -0.5132001   0.0000000), wk =   0.0000000
        k(  243) = (   0.3333333  -0.1283001   0.0000000), wk =   0.0061728
        k(  244) = (   0.1666663  -0.4169751   0.0000000), wk =   0.0000000
        k(  245) = (  -0.0555556  -0.3528252   0.0000000), wk =   0.0061728
        k(  246) = (  -0.2222226  -0.6415002   0.0000000), wk =   0.0000000
        k(  247) = (   0.0555556  -0.3528252   0.0000000), wk =   0.0061728
        k(  248) = (  -0.1111114  -0.6415002   0.0000000), wk =   0.0000000
        k(  249) = (  -0.2777778   0.2245251   0.0000000), wk =   0.0061728
        k(  250) = (  -0.4444448  -0.0641499   0.0000000), wk =   0.0000000
        k(  251) = (   0.3333333   0.1283001   0.0000000), wk =   0.0061728
        k(  252) = (   0.1666663  -0.1603749   0.0000000), wk =   0.0000000
        k(  253) = (   0.2777778   0.2245251   0.0000000), wk =   0.0061728
        k(  254) = (   0.1111108  -0.0641499   0.0000000), wk =   0.0000000
        k(  255) = (  -0.3333333   0.1283001   0.0000000), wk =   0.0061728
        k(  256) = (  -0.5000003  -0.1603749   0.0000000), wk =   0.0000000
        k(  257) = (  -0.0555556   0.4169752   0.0000000), wk =   0.0061728
        k(  258) = (  -0.2222226   0.1283002   0.0000000), wk =   0.0000000
        k(  259) = (   0.3333333  -0.2566001   0.0000000), wk =   0.0061728
        k(  260) = (   0.1666663  -0.5452751   0.0000000), wk =   0.0000000
        k(  261) = (  -0.3888889  -0.1603751   0.0000000), wk =   0.0061728
        k(  262) = (  -0.5555559  -0.4490501   0.0000000), wk =   0.0000000
        k(  263) = (  -0.3333333  -0.2566001   0.0000000), wk =   0.0061728
        k(  264) = (  -0.5000003  -0.5452751   0.0000000), wk =   0.0000000
        k(  265) = (   0.3888889  -0.1603751   0.0000000), wk =   0.0061728
        k(  266) = (   0.2222219  -0.4490501   0.0000000), wk =   0.0000000
        k(  267) = (  -0.0555556  -0.4169752   0.0000000), wk =   0.0061728
        k(  268) = (  -0.2222226  -0.7056502   0.0000000), wk =   0.0000000
        k(  269) = (   0.0555556  -0.4169752   0.0000000), wk =   0.0061728
        k(  270) = (  -0.1111114  -0.7056502   0.0000000), wk =   0.0000000
        k(  271) = (  -0.3333333   0.2566001   0.0000000), wk =   0.0061728
        k(  272) = (  -0.5000003  -0.0320749   0.0000000), wk =   0.0000000
        k(  273) = (   0.3888889   0.1603751   0.0000000), wk =   0.0061728
        k(  274) = (   0.2222219  -0.1282999   0.0000000), wk =   0.0000000
        k(  275) = (   0.3333333   0.2566001   0.0000000), wk =   0.0061728
        k(  276) = (   0.1666663  -0.0320749   0.0000000), wk =   0.0000000
        k(  277) = (  -0.3888889   0.1603751   0.0000000), wk =   0.0061728
        k(  278) = (  -0.5555559  -0.1282999   0.0000000), wk =   0.0000000
        k(  279) = (  -0.0555556   0.4811252   0.0000000), wk =   0.0061728
        k(  280) = (  -0.2222226   0.1924502   0.0000000), wk =   0.0000000
        k(  281) = (   0.3888889  -0.2886751   0.0000000), wk =   0.0061728
        k(  282) = (   0.2222219  -0.5773501   0.0000000), wk =   0.0000000
        k(  283) = (  -0.4444444  -0.1924501   0.0000000), wk =   0.0061728
        k(  284) = (  -0.6111114  -0.4811251   0.0000000), wk =   0.0000000
        k(  285) = (  -0.3888889  -0.2886751   0.0000000), wk =   0.0061728
        k(  286) = (  -0.5555559  -0.5773501   0.0000000), wk =   0.0000000
        k(  287) = (   0.4444444  -0.1924501   0.0000000), wk =   0.0061728
        k(  288) = (   0.2777774  -0.4811251   0.0000000), wk =   0.0000000
        k(  289) = (  -0.0555556  -0.4811252   0.0000000), wk =   0.0061728
        k(  290) = (  -0.2222226  -0.7698002   0.0000000), wk =   0.0000000
        k(  291) = (   0.0555556  -0.4811252   0.0000000), wk =   0.0061728
        k(  292) = (  -0.1111114  -0.7698002   0.0000000), wk =   0.0000000
        k(  293) = (  -0.3888889   0.2886751   0.0000000), wk =   0.0061728
        k(  294) = (  -0.5555559   0.0000001   0.0000000), wk =   0.0000000
        k(  295) = (   0.4444444   0.1924501   0.0000000), wk =   0.0061728
        k(  296) = (   0.2777774  -0.0962249   0.0000000), wk =   0.0000000
        k(  297) = (   0.3888889   0.2886751   0.0000000), wk =   0.0061728
        k(  298) = (   0.2222219   0.0000001   0.0000000), wk =   0.0000000
        k(  299) = (  -0.4444444   0.1924501   0.0000000), wk =   0.0061728
        k(  300) = (  -0.6111114  -0.0962249   0.0000000), wk =   0.0000000
        k(  301) = (  -0.0555556   0.5452753   0.0000000), wk =   0.0061728
        k(  302) = (  -0.2222226   0.2566003   0.0000000), wk =   0.0000000
        k(  303) = (   0.4444444  -0.3207501   0.0000000), wk =   0.0061728
        k(  304) = (   0.2777774  -0.6094251   0.0000000), wk =   0.0000000
        k(  305) = (  -0.5000000  -0.2245251   0.0000000), wk =   0.0061728
        k(  306) = (  -0.6666670  -0.5132001   0.0000000), wk =   0.0000000
        k(  307) = (  -0.4444444  -0.3207501   0.0000000), wk =   0.0061728
        k(  308) = (  -0.6111114  -0.6094251   0.0000000), wk =   0.0000000
        k(  309) = (   0.5000000  -0.2245251   0.0000000), wk =   0.0061728
        k(  310) = (   0.3333330  -0.5132001   0.0000000), wk =   0.0000000
        k(  311) = (  -0.0555556  -0.5452753   0.0000000), wk =   0.0061728
        k(  312) = (  -0.2222226  -0.8339503   0.0000000), wk =   0.0000000
        k(  313) = (   0.0555556  -0.5452753   0.0000000), wk =   0.0061728
        k(  314) = (  -0.1111114  -0.8339503   0.0000000), wk =   0.0000000
        k(  315) = (  -0.4444444   0.3207501   0.0000000), wk =   0.0061728
        k(  316) = (  -0.6111114   0.0320751   0.0000000), wk =   0.0000000
        k(  317) = (   0.5000000   0.2245251   0.0000000), wk =   0.0061728
        k(  318) = (   0.3333330  -0.0641499   0.0000000), wk =   0.0000000
        k(  319) = (   0.4444444   0.3207501   0.0000000), wk =   0.0061728
        k(  320) = (   0.2777774   0.0320751   0.0000000), wk =   0.0000000
        k(  321) = (  -0.5000000   0.2245251   0.0000000), wk =   0.0061728
        k(  322) = (  -0.6666670  -0.0641499   0.0000000), wk =   0.0000000
        k(  323) = (  -0.1111111   0.1924501   0.0000000), wk =   0.0061728
        k(  324) = (  -0.2777781  -0.0962249   0.0000000), wk =   0.0000000
        k(  325) = (   0.1111111  -0.1924501   0.0000000), wk =   0.0061728
        k(  326) = (  -0.0555559  -0.4811251   0.0000000), wk =   0.0000000
        k(  327) = (  -0.2222222   0.0000000   0.0000000), wk =   0.0061728
        k(  328) = (  -0.3888892  -0.2886750   0.0000000), wk =   0.0000000
        k(  329) = (  -0.1111111  -0.1924501   0.0000000), wk =   0.0061728
        k(  330) = (  -0.2777781  -0.4811251   0.0000000), wk =   0.0000000
        k(  331) = (   0.2222222  -0.0000000   0.0000000), wk =   0.0061728
        k(  332) = (   0.0555552  -0.2886750   0.0000000), wk =   0.0000000
        k(  333) = (  -0.1111111   0.2566001   0.0000000), wk =   0.0061728
        k(  334) = (  -0.2777781  -0.0320749   0.0000000), wk =   0.0000000
        k(  335) = (   0.1666667  -0.2245251   0.0000000), wk =   0.0061728
        k(  336) = (  -0.0000003  -0.5132001   0.0000000), wk =   0.0000000
        k(  337) = (  -0.2777778  -0.0320750   0.0000000), wk =   0.0061728
        k(  338) = (  -0.4444448  -0.3207500   0.0000000), wk =   0.0000000
        k(  339) = (  -0.1666667  -0.2245251   0.0000000), wk =   0.0061728
        k(  340) = (  -0.3333337  -0.5132001   0.0000000), wk =   0.0000000
        k(  341) = (   0.2777778  -0.0320750   0.0000000), wk =   0.0061728
        k(  342) = (   0.1111108  -0.3207500   0.0000000), wk =   0.0000000
        k(  343) = (  -0.1111111  -0.2566001   0.0000000), wk =   0.0061728
        k(  344) = (  -0.2777781  -0.5452751   0.0000000), wk =   0.0000000
        k(  345) = (   0.1111111  -0.2566001   0.0000000), wk =   0.0061728
        k(  346) = (  -0.0555559  -0.5452751   0.0000000), wk =   0.0000000
        k(  347) = (  -0.1666667   0.2245251   0.0000000), wk =   0.0061728
        k(  348) = (  -0.3333337  -0.0641499   0.0000000), wk =   0.0000000
        k(  349) = (   0.2777778   0.0320750   0.0000000), wk =   0.0061728
        k(  350) = (   0.1111108  -0.2566000   0.0000000), wk =   0.0000000
        k(  351) = (   0.1666667   0.2245251   0.0000000), wk =   0.0061728
        k(  352) = (  -0.0000003  -0.0641499   0.0000000), wk =   0.0000000
        k(  353) = (  -0.2777778   0.0320750   0.0000000), wk =   0.0061728
        k(  354) = (  -0.4444448  -0.2566000   0.0000000), wk =   0.0000000
        k(  355) = (  -0.1111111   0.3207501   0.0000000), wk =   0.0061728
        k(  356) = (  -0.2777781   0.0320751   0.0000000), wk =   0.0000000
        k(  357) = (   0.2222222  -0.2566001   0.0000000), wk =   0.0061728
        k(  358) = (   0.0555552  -0.5452751   0.0000000), wk =   0.0000000
        k(  359) = (  -0.3333333  -0.0641500   0.0000000), wk =   0.0061728
        k(  360) = (  -0.5000003  -0.3528250   0.0000000), wk =   0.0000000
        k(  361) = (  -0.2222222  -0.2566001   0.0000000), wk =   0.0061728
        k(  362) = (  -0.3888892  -0.5452751   0.0000000), wk =   0.0000000
        k(  363) = (   0.3333333  -0.0641500   0.0000000), wk =   0.0061728
        k(  364) = (   0.1666663  -0.3528250   0.0000000), wk =   0.0000000
        k(  365) = (  -0.1111111  -0.3207501   0.0000000), wk =   0.0061728
        k(  366) = (  -0.2777781  -0.6094251   0.0000000), wk =   0.0000000
        k(  367) = (   0.1111111  -0.3207501   0.0000000), wk =   0.0061728
        k(  368) = (  -0.0555559  -0.6094251   0.0000000), wk =   0.0000000
        k(  369) = (  -0.2222222   0.2566001   0.0000000), wk =   0.0061728
        k(  370) = (  -0.3888892  -0.0320749   0.0000000), wk =   0.0000000
        k(  371) = (   0.3333333   0.0641500   0.0000000), wk =   0.0061728
        k(  372) = (   0.1666663  -0.2245250   0.0000000), wk =   0.0000000
        k(  373) = (   0.2222222   0.2566001   0.0000000), wk =   0.0061728
        k(  374) = (   0.0555552  -0.0320749   0.0000000), wk =   0.0000000
        k(  375) = (  -0.3333333   0.0641500   0.0000000), wk =   0.0061728
        k(  376) = (  -0.5000003  -0.2245250   0.0000000), wk =   0.0000000
        k(  377) = (  -0.1111111   0.3849002   0.0000000), wk =   0.0061728
        k(  378) = (  -0.2777781   0.0962252   0.0000000), wk =   0.0000000
        k(  379) = (   0.2777778  -0.2886751   0.0000000), wk =   0.0061728
        k(  380) = (   0.1111108  -0.5773501   0.0000000), wk =   0.0000000
        k(  381) = (  -0.3888889  -0.0962250   0.0000000), wk =   0.0061728
        k(  382) = (  -0.5555559  -0.3849000   0.0000000), wk =   0.0000000
        k(  383) = (  -0.2777778  -0.2886751   0.0000000), wk =   0.0061728
        k(  384) = (  -0.4444448  -0.5773501   0.0000000), wk =   0.0000000
        k(  385) = (   0.3888889  -0.0962250   0.0000000), wk =   0.0061728
        k(  386) = (   0.2222219  -0.3849000   0.0000000), wk =   0.0000000
        k(  387) = (  -0.1111111  -0.3849002   0.0000000), wk =   0.0061728
        k(  388) = (  -0.2777781  -0.6735752   0.0000000), wk =   0.0000000
        k(  389) = (   0.1111111  -0.3849002   0.0000000), wk =   0.0061728
        k(  390) = (  -0.0555559  -0.6735752   0.0000000), wk =   0.0000000
        k(  391) = (  -0.2777778   0.2886751   0.0000000), wk =   0.0061728
        k(  392) = (  -0.4444448   0.0000001   0.0000000), wk =   0.0000000
        k(  393) = (   0.3888889   0.0962250   0.0000000), wk =   0.0061728
        k(  394) = (   0.2222219  -0.1924500   0.0000000), wk =   0.0000000
        k(  395) = (   0.2777778   0.2886751   0.0000000), wk =   0.0061728
        k(  396) = (   0.1111108   0.0000001   0.0000000), wk =   0.0000000
        k(  397) = (  -0.3888889   0.0962250   0.0000000), wk =   0.0061728
        k(  398) = (  -0.5555559  -0.1924500   0.0000000), wk =   0.0000000
        k(  399) = (  -0.1111111   0.4490502   0.0000000), wk =   0.0061728
        k(  400) = (  -0.2777781   0.1603752   0.0000000), wk =   0.0000000
        k(  401) = (   0.3333333  -0.3207501   0.0000000), wk =   0.0061728
        k(  402) = (   0.1666663  -0.6094251   0.0000000), wk =   0.0000000
        k(  403) = (  -0.4444444  -0.1283001   0.0000000), wk =   0.0061728
        k(  404) = (  -0.6111114  -0.4169751   0.0000000), wk =   0.0000000
        k(  405) = (  -0.3333333  -0.3207501   0.0000000), wk =   0.0061728
        k(  406) = (  -0.5000003  -0.6094251   0.0000000), wk =   0.0000000
        k(  407) = (   0.4444444  -0.1283001   0.0000000), wk =   0.0061728
        k(  408) = (   0.2777774  -0.4169751   0.0000000), wk =   0.0000000
        k(  409) = (  -0.1111111  -0.4490502   0.0000000), wk =   0.0061728
        k(  410) = (  -0.2777781  -0.7377252   0.0000000), wk =   0.0000000
        k(  411) = (   0.1111111  -0.4490502   0.0000000), wk =   0.0061728
        k(  412) = (  -0.0555559  -0.7377252   0.0000000), wk =   0.0000000
        k(  413) = (  -0.3333333   0.3207501   0.0000000), wk =   0.0061728
        k(  414) = (  -0.5000003   0.0320751   0.0000000), wk =   0.0000000
        k(  415) = (   0.4444444   0.1283001   0.0000000), wk =   0.0061728
        k(  416) = (   0.2777774  -0.1603749   0.0000000), wk =   0.0000000
        k(  417) = (   0.3333333   0.3207501   0.0000000), wk =   0.0061728
        k(  418) = (   0.1666663   0.0320751   0.0000000), wk =   0.0000000
        k(  419) = (  -0.4444444   0.1283001   0.0000000), wk =   0.0061728
        k(  420) = (  -0.6111114  -0.1603749   0.0000000), wk =   0.0000000
        k(  421) = (  -0.1111111   0.5132002   0.0000000), wk =   0.0061728
        k(  422) = (  -0.2777781   0.2245252   0.0000000), wk =   0.0000000
        k(  423) = (   0.3888889  -0.3528252   0.0000000), wk =   0.0061728
        k(  424) = (   0.2222219  -0.6415002   0.0000000), wk =   0.0000000
        k(  425) = (  -0.5000000  -0.1603751   0.0000000), wk =   0.0061728
        k(  426) = (  -0.6666670  -0.4490501   0.0000000), wk =   0.0000000
        k(  427) = (  -0.3888889  -0.3528252   0.0000000), wk =   0.0061728
        k(  428) = (  -0.5555559  -0.6415002   0.0000000), wk =   0.0000000
        k(  429) = (   0.5000000  -0.1603751   0.0000000), wk =   0.0061728
        k(  430) = (   0.3333330  -0.4490501   0.0000000), wk =   0.0000000
        k(  431) = (  -0.1111111  -0.5132002   0.0000000), wk =   0.0061728
        k(  432) = (  -0.2777781  -0.8018752   0.0000000), wk =   0.0000000
        k(  433) = (   0.1111111  -0.5132002   0.0000000), wk =   0.0061728
        k(  434) = (  -0.0555559  -0.8018752   0.0000000), wk =   0.0000000
        k(  435) = (  -0.3888889   0.3528252   0.0000000), wk =   0.0061728
        k(  436) = (  -0.5555559   0.0641502   0.0000000), wk =   0.0000000
        k(  437) = (   0.5000000   0.1603751   0.0000000), wk =   0.0061728
        k(  438) = (   0.3333330  -0.1282999   0.0000000), wk =   0.0000000
        k(  439) = (   0.3888889   0.3528252   0.0000000), wk =   0.0061728
        k(  440) = (   0.2222219   0.0641502   0.0000000), wk =   0.0000000
        k(  441) = (  -0.5000000   0.1603751   0.0000000), wk =   0.0061728
        k(  442) = (  -0.6666670  -0.1282999   0.0000000), wk =   0.0000000
        k(  443) = (  -0.1111111   0.5773503   0.0000000), wk =   0.0061728
        k(  444) = (  -0.2777781   0.2886753   0.0000000), wk =   0.0000000
        k(  445) = (   0.4444444  -0.3849002   0.0000000), wk =   0.0061728
        k(  446) = (   0.2777774  -0.6735752   0.0000000), wk =   0.0000000
        k(  447) = (  -0.5555556  -0.1924501   0.0000000), wk =   0.0061728
        k(  448) = (  -0.7222226  -0.4811251   0.0000000), wk =   0.0000000
        k(  449) = (  -0.4444444  -0.3849002   0.0000000), wk =   0.0061728
        k(  450) = (  -0.6111114  -0.6735752   0.0000000), wk =   0.0000000
        k(  451) = (   0.5555556  -0.1924501   0.0000000), wk =   0.0061728
        k(  452) = (   0.3888886  -0.4811251   0.0000000), wk =   0.0000000
        k(  453) = (  -0.1666667   0.2886751   0.0000000), wk =   0.0061728
        k(  454) = (  -0.3333337   0.0000001   0.0000000), wk =   0.0000000
        k(  455) = (   0.1666667  -0.2886751   0.0000000), wk =   0.0061728
        k(  456) = (  -0.0000003  -0.5773501   0.0000000), wk =   0.0000000
        k(  457) = (  -0.3333333  -0.0000000   0.0000000), wk =   0.0061728
        k(  458) = (  -0.5000003  -0.2886750   0.0000000), wk =   0.0000000
        k(  459) = (  -0.1666667  -0.2886751   0.0000000), wk =   0.0061728
        k(  460) = (  -0.3333337  -0.5773501   0.0000000), wk =   0.0000000
        k(  461) = (   0.3333333   0.0000000   0.0000000), wk =   0.0061728
        k(  462) = (   0.1666663  -0.2886750   0.0000000), wk =   0.0000000
        k(  463) = (  -0.1666667   0.3528252   0.0000000), wk =   0.0061728
        k(  464) = (  -0.3333337   0.0641502   0.0000000), wk =   0.0000000
        k(  465) = (   0.2222222  -0.3207501   0.0000000), wk =   0.0061728
        k(  466) = (   0.0555552  -0.6094251   0.0000000), wk =   0.0000000
        k(  467) = (  -0.3888889  -0.0320750   0.0000000), wk =   0.0061728
        k(  468) = (  -0.5555559  -0.3207500   0.0000000), wk =   0.0000000
        k(  469) = (  -0.2222222  -0.3207501   0.0000000), wk =   0.0061728
        k(  470) = (  -0.3888892  -0.6094251   0.0000000), wk =   0.0000000
        k(  471) = (   0.3888889  -0.0320750   0.0000000), wk =   0.0061728
        k(  472) = (   0.2222219  -0.3207500   0.0000000), wk =   0.0000000
        k(  473) = (  -0.1666667  -0.3528252   0.0000000), wk =   0.0061728
        k(  474) = (  -0.3333337  -0.6415002   0.0000000), wk =   0.0000000
        k(  475) = (   0.1666667  -0.3528252   0.0000000), wk =   0.0061728
        k(  476) = (  -0.0000003  -0.6415002   0.0000000), wk =   0.0000000
        k(  477) = (  -0.2222222   0.3207501   0.0000000), wk =   0.0061728
        k(  478) = (  -0.3888892   0.0320751   0.0000000), wk =   0.0000000
        k(  479) = (   0.3888889   0.0320750   0.0000000), wk =   0.0061728
        k(  480) = (   0.2222219  -0.2566000   0.0000000), wk =   0.0000000
        k(  481) = (   0.2222222   0.3207501   0.0000000), wk =   0.0061728
        k(  482) = (   0.0555552   0.0320751   0.0000000), wk =   0.0000000
        k(  483) = (  -0.3888889   0.0320750   0.0000000), wk =   0.0061728
        k(  484) = (  -0.5555559  -0.2566000   0.0000000), wk =   0.0000000
        k(  485) = (  -0.1666667   0.4169752   0.0000000), wk =   0.0061728
        k(  486) = (  -0.3333337   0.1283002   0.0000000), wk =   0.0000000
        k(  487) = (   0.2777778  -0.3528252   0.0000000), wk =   0.0061728
        k(  488) = (   0.1111108  -0.6415002   0.0000000), wk =   0.0000000
        k(  489) = (  -0.4444444  -0.0641500   0.0000000), wk =   0.0061728
        k(  490) = (  -0.6111114  -0.3528250   0.0000000), wk =   0.0000000
        k(  491) = (  -0.2777778  -0.3528252   0.0000000), wk =   0.0061728
        k(  492) = (  -0.4444448  -0.6415002   0.0000000), wk =   0.0000000
        k(  493) = (   0.4444444  -0.0641500   0.0000000), wk =   0.0061728
        k(  494) = (   0.2777774  -0.3528250   0.0000000), wk =   0.0000000
        k(  495) = (  -0.1666667  -0.4169752   0.0000000), wk =   0.0061728
        k(  496) = (  -0.3333337  -0.7056502   0.0000000), wk =   0.0000000
        k(  497) = (   0.1666667  -0.4169752   0.0000000), wk =   0.0061728
        k(  498) = (  -0.0000003  -0.7056502   0.0000000), wk =   0.0000000
        k(  499) = (  -0.2777778   0.3528252   0.0000000), wk =   0.0061728
        k(  500) = (  -0.4444448   0.0641502   0.0000000), wk =   0.0000000
        k(  501) = (   0.4444444   0.0641500   0.0000000), wk =   0.0061728
        k(  502) = (   0.2777774  -0.2245250   0.0000000), wk =   0.0000000
        k(  503) = (   0.2777778   0.3528252   0.0000000), wk =   0.0061728
        k(  504) = (   0.1111108   0.0641502   0.0000000), wk =   0.0000000
        k(  505) = (  -0.4444444   0.0641500   0.0000000), wk =   0.0061728
        k(  506) = (  -0.6111114  -0.2245250   0.0000000), wk =   0.0000000
        k(  507) = (  -0.1666667   0.4811252   0.0000000), wk =   0.0061728
        k(  508) = (  -0.3333337   0.1924502   0.0000000), wk =   0.0000000
        k(  509) = (   0.3333333  -0.3849002   0.0000000), wk =   0.0061728
        k(  510) = (   0.1666663  -0.6735752   0.0000000), wk =   0.0000000
        k(  511) = (  -0.5000000  -0.0962250   0.0000000), wk =   0.0061728
        k(  512) = (  -0.6666670  -0.3849000   0.0000000), wk =   0.0000000
        k(  513) = (  -0.3333333  -0.3849002   0.0000000), wk =   0.0061728
        k(  514) = (  -0.5000003  -0.6735752   0.0000000), wk =   0.0000000
        k(  515) = (   0.5000000  -0.0962250   0.0000000), wk =   0.0061728
        k(  516) = (   0.3333330  -0.3849000   0.0000000), wk =   0.0000000
        k(  517) = (  -0.1666667  -0.4811252   0.0000000), wk =   0.0061728
        k(  518) = (  -0.3333337  -0.7698002   0.0000000), wk =   0.0000000
        k(  519) = (   0.1666667  -0.4811252   0.0000000), wk =   0.0061728
        k(  520) = (  -0.0000003  -0.7698002   0.0000000), wk =   0.0000000
        k(  521) = (  -0.3333333   0.3849002   0.0000000), wk =   0.0061728
        k(  522) = (  -0.5000003   0.0962252   0.0000000), wk =   0.0000000
        k(  523) = (   0.5000000   0.0962250   0.0000000), wk =   0.0061728
        k(  524) = (   0.3333330  -0.1924500   0.0000000), wk =   0.0000000
        k(  525) = (   0.3333333   0.3849002   0.0000000), wk =   0.0061728
        k(  526) = (   0.1666663   0.0962252   0.0000000), wk =   0.0000000
        k(  527) = (  -0.5000000   0.0962250   0.0000000), wk =   0.0061728
        k(  528) = (  -0.6666670  -0.1924500   0.0000000), wk =   0.0000000
        k(  529) = (  -0.1666667   0.5452753   0.0000000), wk =   0.0061728
        k(  530) = (  -0.3333337   0.2566003   0.0000000), wk =   0.0000000
        k(  531) = (   0.3888889  -0.4169752   0.0000000), wk =   0.0061728
        k(  532) = (   0.2222219  -0.7056502   0.0000000), wk =   0.0000000
        k(  533) = (  -0.5555556  -0.1283001   0.0000000), wk =   0.0061728
        k(  534) = (  -0.7222226  -0.4169751   0.0000000), wk =   0.0000000
        k(  535) = (  -0.3888889  -0.4169752   0.0000000), wk =   0.0061728
        k(  536) = (  -0.5555559  -0.7056502   0.0000000), wk =   0.0000000
        k(  537) = (   0.5555556  -0.1283001   0.0000000), wk =   0.0061728
        k(  538) = (   0.3888886  -0.4169751   0.0000000), wk =   0.0000000
        k(  539) = (  -0.1666667  -0.5452753   0.0000000), wk =   0.0061728
        k(  540) = (  -0.3333337  -0.8339503   0.0000000), wk =   0.0000000
        k(  541) = (   0.1666667  -0.5452753   0.0000000), wk =   0.0061728
        k(  542) = (  -0.0000003  -0.8339503   0.0000000), wk =   0.0000000
        k(  543) = (  -0.3888889   0.4169752   0.0000000), wk =   0.0061728
        k(  544) = (  -0.5555559   0.1283002   0.0000000), wk =   0.0000000
        k(  545) = (   0.5555556   0.1283001   0.0000000), wk =   0.0061728
        k(  546) = (   0.3888886  -0.1603749   0.0000000), wk =   0.0000000
        k(  547) = (   0.3888889   0.4169752   0.0000000), wk =   0.0061728
        k(  548) = (   0.2222219   0.1283002   0.0000000), wk =   0.0000000
        k(  549) = (  -0.5555556   0.1283001   0.0000000), wk =   0.0061728
        k(  550) = (  -0.7222226  -0.1603749   0.0000000), wk =   0.0000000
        k(  551) = (  -0.2222222   0.3849002   0.0000000), wk =   0.0061728
        k(  552) = (  -0.3888892   0.0962252   0.0000000), wk =   0.0000000
        k(  553) = (   0.2222222  -0.3849002   0.0000000), wk =   0.0061728
        k(  554) = (   0.0555552  -0.6735752   0.0000000), wk =   0.0000000
        k(  555) = (  -0.4444444   0.0000000   0.0000000), wk =   0.0061728
        k(  556) = (  -0.6111114  -0.2886750   0.0000000), wk =   0.0000000
        k(  557) = (  -0.2222222  -0.3849002   0.0000000), wk =   0.0061728
        k(  558) = (  -0.3888892  -0.6735752   0.0000000), wk =   0.0000000
        k(  559) = (   0.4444444  -0.0000000   0.0000000), wk =   0.0061728
        k(  560) = (   0.2777774  -0.2886750   0.0000000), wk =   0.0000000
        k(  561) = (  -0.2222222   0.4490502   0.0000000), wk =   0.0061728
        k(  562) = (  -0.3888892   0.1603752   0.0000000), wk =   0.0000000
        k(  563) = (   0.2777778  -0.4169752   0.0000000), wk =   0.0061728
        k(  564) = (   0.1111108  -0.7056502   0.0000000), wk =   0.0000000
        k(  565) = (  -0.5000000  -0.0320750   0.0000000), wk =   0.0061728
        k(  566) = (  -0.6666670  -0.3207500   0.0000000), wk =   0.0000000
        k(  567) = (  -0.2777778  -0.4169752   0.0000000), wk =   0.0061728
        k(  568) = (  -0.4444448  -0.7056502   0.0000000), wk =   0.0000000
        k(  569) = (   0.5000000  -0.0320750   0.0000000), wk =   0.0061728
        k(  570) = (   0.3333330  -0.3207500   0.0000000), wk =   0.0000000
        k(  571) = (  -0.2222222  -0.4490502   0.0000000), wk =   0.0061728
        k(  572) = (  -0.3888892  -0.7377252   0.0000000), wk =   0.0000000
        k(  573) = (   0.2222222  -0.4490502   0.0000000), wk =   0.0061728
        k(  574) = (   0.0555552  -0.7377252   0.0000000), wk =   0.0000000
        k(  575) = (  -0.2777778   0.4169752   0.0000000), wk =   0.0061728
        k(  576) = (  -0.4444448   0.1283002   0.0000000), wk =   0.0000000
        k(  577) = (   0.5000000   0.0320750   0.0000000), wk =   0.0061728
        k(  578) = (   0.3333330  -0.2566000   0.0000000), wk =   0.0000000
        k(  579) = (   0.2777778   0.4169752   0.0000000), wk =   0.0061728
        k(  580) = (   0.1111108   0.1283002   0.0000000), wk =   0.0000000
        k(  581) = (  -0.5000000   0.0320750   0.0000000), wk =   0.0061728
        k(  582) = (  -0.6666670  -0.2566000   0.0000000), wk =   0.0000000
        k(  583) = (  -0.2222222   0.5132002   0.0000000), wk =   0.0061728
        k(  584) = (  -0.3888892   0.2245252   0.0000000), wk =   0.0000000
        k(  585) = (   0.3333333  -0.4490502   0.0000000), wk =   0.0061728
        k(  586) = (   0.1666663  -0.7377252   0.0000000), wk =   0.0000000
        k(  587) = (  -0.5555556  -0.0641500   0.0000000), wk =   0.0061728
        k(  588) = (  -0.7222226  -0.3528250   0.0000000), wk =   0.0000000
        k(  589) = (  -0.3333333  -0.4490502   0.0000000), wk =   0.0061728
        k(  590) = (  -0.5000003  -0.7377252   0.0000000), wk =   0.0000000
        k(  591) = (   0.5555556  -0.0641500   0.0000000), wk =   0.0061728
        k(  592) = (   0.3888886  -0.3528250   0.0000000), wk =   0.0000000
        k(  593) = (  -0.2222222  -0.5132002   0.0000000), wk =   0.0061728
        k(  594) = (  -0.3888892  -0.8018752   0.0000000), wk =   0.0000000
        k(  595) = (   0.2222222  -0.5132002   0.0000000), wk =   0.0061728
        k(  596) = (   0.0555552  -0.8018752   0.0000000), wk =   0.0000000
        k(  597) = (  -0.3333333   0.4490502   0.0000000), wk =   0.0061728
        k(  598) = (  -0.5000003   0.1603752   0.0000000), wk =   0.0000000
        k(  599) = (   0.5555556   0.0641500   0.0000000), wk =   0.0061728
        k(  600) = (   0.3888886  -0.2245250   0.0000000), wk =   0.0000000
        k(  601) = (   0.3333333   0.4490502   0.0000000), wk =   0.0061728
        k(  602) = (   0.1666663   0.1603752   0.0000000), wk =   0.0000000
        k(  603) = (  -0.5555556   0.0641500   0.0000000), wk =   0.0061728
        k(  604) = (  -0.7222226  -0.2245250   0.0000000), wk =   0.0000000
        k(  605) = (  -0.2222222   0.5773503   0.0000000), wk =   0.0061728
        k(  606) = (  -0.3888892   0.2886753   0.0000000), wk =   0.0000000
        k(  607) = (   0.3888889  -0.4811252   0.0000000), wk =   0.0061728
        k(  608) = (   0.2222219  -0.7698002   0.0000000), wk =   0.0000000
        k(  609) = (  -0.6111111  -0.0962250   0.0000000), wk =   0.0061728
        k(  610) = (  -0.7777781  -0.3849000   0.0000000), wk =   0.0000000
        k(  611) = (  -0.3888889  -0.4811252   0.0000000), wk =   0.0061728
        k(  612) = (  -0.5555559  -0.7698002   0.0000000), wk =   0.0000000
        k(  613) = (   0.6111111  -0.0962250   0.0000000), wk =   0.0061728
        k(  614) = (   0.4444441  -0.3849000   0.0000000), wk =   0.0000000
        k(  615) = (  -0.2777778   0.4811252   0.0000000), wk =   0.0061728
        k(  616) = (  -0.4444448   0.1924502   0.0000000), wk =   0.0000000
        k(  617) = (   0.2777778  -0.4811252   0.0000000), wk =   0.0061728
        k(  618) = (   0.1111108  -0.7698002   0.0000000), wk =   0.0000000
        k(  619) = (  -0.5555556  -0.0000000   0.0000000), wk =   0.0061728
        k(  620) = (  -0.7222226  -0.2886750   0.0000000), wk =   0.0000000
        k(  621) = (  -0.2777778  -0.4811252   0.0000000), wk =   0.0061728
        k(  622) = (  -0.4444448  -0.7698002   0.0000000), wk =   0.0000000
        k(  623) = (   0.5555556   0.0000000   0.0000000), wk =   0.0061728
        k(  624) = (   0.3888886  -0.2886750   0.0000000), wk =   0.0000000
        k(  625) = (  -0.2777778   0.5452753   0.0000000), wk =   0.0061728
        k(  626) = (  -0.4444448   0.2566003   0.0000000), wk =   0.0000000
        k(  627) = (   0.3333333  -0.5132002   0.0000000), wk =   0.0061728
        k(  628) = (   0.1666663  -0.8018752   0.0000000), wk =   0.0000000
        k(  629) = (  -0.6111111  -0.0320750   0.0000000), wk =   0.0061728
        k(  630) = (  -0.7777781  -0.3207500   0.0000000), wk =   0.0000000
        k(  631) = (  -0.3333333  -0.5132002   0.0000000), wk =   0.0061728
        k(  632) = (  -0.5000003  -0.8018752   0.0000000), wk =   0.0000000
        k(  633) = (   0.6111111  -0.0320750   0.0000000), wk =   0.0061728
        k(  634) = (   0.4444441  -0.3207500   0.0000000), wk =   0.0000000
        k(  635) = (  -0.2777778  -0.5452753   0.0000000), wk =   0.0061728
        k(  636) = (  -0.4444448  -0.8339503   0.0000000), wk =   0.0000000
        k(  637) = (   0.2777778  -0.5452753   0.0000000), wk =   0.0061728
        k(  638) = (   0.1111108  -0.8339503   0.0000000), wk =   0.0000000
        k(  639) = (  -0.3333333   0.5132002   0.0000000), wk =   0.0061728
        k(  640) = (  -0.5000003   0.2245252   0.0000000), wk =   0.0000000
        k(  641) = (   0.6111111   0.0320750   0.0000000), wk =   0.0061728
        k(  642) = (   0.4444441  -0.2566000   0.0000000), wk =   0.0000000
        k(  643) = (   0.3333333   0.5132002   0.0000000), wk =   0.0061728
        k(  644) = (   0.1666663   0.2245252   0.0000000), wk =   0.0000000
        k(  645) = (  -0.6111111   0.0320750   0.0000000), wk =   0.0061728
        k(  646) = (  -0.7777781  -0.2566000   0.0000000), wk =   0.0000000
        k(  647) = (  -0.3333333   0.5773503   0.0000000), wk =   0.0061728
        k(  648) = (  -0.5000003   0.2886753   0.0000000), wk =   0.0000000

                       cryst. coord.
        k(    1) = (   0.0000000   0.0000000   0.0000000), wk =   0.0061728
        k(    2) = (  -0.1666670  -0.1666664   0.0000000), wk =   0.0000000
        k(    3) = (   0.0000000   0.0555556   0.0000000), wk =   0.0061728
        k(    4) = (  -0.1666670  -0.1111108   0.0000000), wk =   0.0000000
        k(    5) = (   0.0000000   0.1111111   0.0000000), wk =   0.0061728
        k(    6) = (  -0.1666670  -0.0555553   0.0000000), wk =   0.0000000
        k(    7) = (   0.0000000   0.1666667   0.0000000), wk =   0.0061728
        k(    8) = (  -0.1666670   0.0000003   0.0000000), wk =   0.0000000
        k(    9) = (   0.0000000   0.2222222   0.0000000), wk =   0.0061728
        k(   10) = (  -0.1666670   0.0555558   0.0000000), wk =   0.0000000
        k(   11) = (   0.0000000   0.2777778   0.0000000), wk =   0.0061728
        k(   12) = (  -0.1666670   0.1111114   0.0000000), wk =   0.0000000
        k(   13) = (   0.0000000   0.3333333   0.0000000), wk =   0.0061728
        k(   14) = (  -0.1666670   0.1666669   0.0000000), wk =   0.0000000
        k(   15) = (   0.0000000   0.3888889   0.0000000), wk =   0.0061728
        k(   16) = (  -0.1666670   0.2222225   0.0000000), wk =   0.0000000
        k(   17) = (   0.0000000   0.4444444   0.0000000), wk =   0.0061728
        k(   18) = (  -0.1666670   0.2777781   0.0000000), wk =   0.0000000
        k(   19) = (   0.0000000  -0.5000000   0.0000000), wk =   0.0061728
        k(   20) = (  -0.1666670  -0.6666664   0.0000000), wk =   0.0000000
        k(   21) = (   0.0555556   0.0555556   0.0000000), wk =   0.0061728
        k(   22) = (  -0.1111114  -0.1111108   0.0000000), wk =   0.0000000
        k(   23) = (   0.0555556   0.1111111   0.0000000), wk =   0.0061728
        k(   24) = (  -0.1111114  -0.0555553   0.0000000), wk =   0.0000000
        k(   25) = (   0.0555556   0.1666667   0.0000000), wk =   0.0061728
        k(   26) = (  -0.1111114   0.0000003   0.0000000), wk =   0.0000000
        k(   27) = (   0.0555556   0.2222222   0.0000000), wk =   0.0061728
        k(   28) = (  -0.1111114   0.0555558   0.0000000), wk =   0.0000000
        k(   29) = (   0.0555556   0.2777778   0.0000000), wk =   0.0061728
        k(   30) = (  -0.1111114   0.1111114   0.0000000), wk =   0.0000000
        k(   31) = (   0.0555556   0.3333333   0.0000000), wk =   0.0061728
        k(   32) = (  -0.1111114   0.1666669   0.0000000), wk =   0.0000000
        k(   33) = (   0.0555556   0.3888889   0.0000000), wk =   0.0061728
        k(   34) = (  -0.1111114   0.2222225   0.0000000), wk =   0.0000000
        k(   35) = (   0.0555556   0.4444444   0.0000000), wk =   0.0061728
        k(   36) = (  -0.1111114   0.2777781   0.0000000), wk =   0.0000000
        k(   37) = (   0.1111111   0.1111111   0.0000000), wk =   0.0061728
        k(   38) = (  -0.0555559  -0.0555553   0.0000000), wk =   0.0000000
        k(   39) = (   0.1111111   0.1666667   0.0000000), wk =   0.0061728
        k(   40) = (  -0.0555559   0.0000003   0.0000000), wk =   0.0000000
        k(   41) = (   0.1111111   0.2222222   0.0000000), wk =   0.0061728
        k(   42) = (  -0.0555559   0.0555558   0.0000000), wk =   0.0000000
        k(   43) = (   0.1111111   0.2777778   0.0000000), wk =   0.0061728
        k(   44) = (  -0.0555559   0.1111114   0.0000000), wk =   0.0000000
        k(   45) = (   0.1111111   0.3333333   0.0000000), wk =   0.0061728
        k(   46) = (  -0.0555559   0.1666669   0.0000000), wk =   0.0000000
        k(   47) = (   0.1111111   0.3888889   0.0000000), wk =   0.0061728
        k(   48) = (  -0.0555559   0.2222225   0.0000000), wk =   0.0000000
        k(   49) = (   0.1111111   0.4444444   0.0000000), wk =   0.0061728
        k(   50) = (  -0.0555559   0.2777781   0.0000000), wk =   0.0000000
        k(   51) = (   0.1666667   0.1666667   0.0000000), wk =   0.0061728
        k(   52) = (  -0.0000003   0.0000003   0.0000000), wk =   0.0000000
        k(   53) = (   0.1666667   0.2222222   0.0000000), wk =   0.0061728
        k(   54) = (  -0.0000003   0.0555558   0.0000000), wk =   0.0000000
        k(   55) = (   0.1666667   0.2777778   0.0000000), wk =   0.0061728
        k(   56) = (  -0.0000003   0.1111114   0.0000000), wk =   0.0000000
        k(   57) = (   0.1666667   0.3333333   0.0000000), wk =   0.0061728
        k(   58) = (  -0.0000003   0.1666669   0.0000000), wk =   0.0000000
        k(   59) = (   0.1666667   0.3888889   0.0000000), wk =   0.0061728
        k(   60) = (  -0.0000003   0.2222225   0.0000000), wk =   0.0000000
        k(   61) = (   0.2222222   0.2222222   0.0000000), wk =   0.0061728
        k(   62) = (   0.0555552   0.0555558   0.0000000), wk =   0.0000000
        k(   63) = (   0.2222222   0.2777778   0.0000000), wk =   0.0061728
        k(   64) = (   0.0555552   0.1111114   0.0000000), wk =   0.0000000
        k(   65) = (   0.2222222   0.3333333   0.0000000), wk =   0.0061728
        k(   66) = (   0.0555552   0.1666669   0.0000000), wk =   0.0000000
        k(   67) = (   0.2222222   0.3888889   0.0000000), wk =   0.0061728
        k(   68) = (   0.0555552   0.2222225   0.0000000), wk =   0.0000000
        k(   69) = (   0.2777778   0.2777778   0.0000000), wk =   0.0061728
        k(   70) = (   0.1111108   0.1111114   0.0000000), wk =   0.0000000
        k(   71) = (   0.2777778   0.3333333   0.0000000), wk =   0.0061728
        k(   72) = (   0.1111108   0.1666669   0.0000000), wk =   0.0000000
        k(   73) = (   0.3333333   0.3333333   0.0000000), wk =   0.0061728
        k(   74) = (   0.1666663   0.1666669   0.0000000), wk =   0.0000000
        k(   75) = (   0.0555556  -0.0555556   0.0000000), wk =   0.0061728
        k(   76) = (  -0.1111114  -0.2222219   0.0000000), wk =   0.0000000
        k(   77) = (  -0.0555556   0.0000000   0.0000000), wk =   0.0061728
        k(   78) = (  -0.2222226  -0.1666664   0.0000000), wk =   0.0000000
        k(   79) = (   0.0000000  -0.0555556   0.0000000), wk =   0.0061728
        k(   80) = (  -0.1666670  -0.2222219   0.0000000), wk =   0.0000000
        k(   81) = (  -0.0555556   0.0555556   0.0000000), wk =   0.0061728
        k(   82) = (  -0.2222226  -0.1111108   0.0000000), wk =   0.0000000
        k(   83) = (   0.0555556   0.0000000   0.0000000), wk =   0.0061728
        k(   84) = (  -0.1111114  -0.1666664   0.0000000), wk =   0.0000000
        k(   85) = (   0.1111111  -0.1111111   0.0000000), wk =   0.0061728
        k(   86) = (  -0.0555559  -0.2777775   0.0000000), wk =   0.0000000
        k(   87) = (  -0.1111111   0.0000000   0.0000000), wk =   0.0061728
        k(   88) = (  -0.2777781  -0.1666664   0.0000000), wk =   0.0000000
        k(   89) = (   0.0000000  -0.1111111   0.0000000), wk =   0.0061728
        k(   90) = (  -0.1666670  -0.2777775   0.0000000), wk =   0.0000000
        k(   91) = (  -0.1111111   0.1111111   0.0000000), wk =   0.0061728
        k(   92) = (  -0.2777781  -0.0555553   0.0000000), wk =   0.0000000
        k(   93) = (   0.1111111   0.0000000   0.0000000), wk =   0.0061728
        k(   94) = (  -0.0555559  -0.1666664   0.0000000), wk =   0.0000000
        k(   95) = (   0.1666667  -0.1666667   0.0000000), wk =   0.0061728
        k(   96) = (  -0.0000003  -0.3333331   0.0000000), wk =   0.0000000
        k(   97) = (  -0.1666667   0.0000000   0.0000000), wk =   0.0061728
        k(   98) = (  -0.3333337  -0.1666664   0.0000000), wk =   0.0000000
        k(   99) = (   0.0000000  -0.1666667   0.0000000), wk =   0.0061728
        k(  100) = (  -0.1666670  -0.3333331   0.0000000), wk =   0.0000000
        k(  101) = (  -0.1666667   0.1666667   0.0000000), wk =   0.0061728
        k(  102) = (  -0.3333337   0.0000003   0.0000000), wk =   0.0000000
        k(  103) = (   0.1666667  -0.0000000   0.0000000), wk =   0.0061728
        k(  104) = (  -0.0000003  -0.1666664   0.0000000), wk =   0.0000000
        k(  105) = (   0.2222222  -0.2222222   0.0000000), wk =   0.0061728
        k(  106) = (   0.0555552  -0.3888886   0.0000000), wk =   0.0000000
        k(  107) = (  -0.2222222   0.0000000   0.0000000), wk =   0.0061728
        k(  108) = (  -0.3888892  -0.1666664   0.0000000), wk =   0.0000000
        k(  109) = (   0.0000000  -0.2222222   0.0000000), wk =   0.0061728
        k(  110) = (  -0.1666670  -0.3888886   0.0000000), wk =   0.0000000
        k(  111) = (  -0.2222222   0.2222222   0.0000000), wk =   0.0061728
        k(  112) = (  -0.3888892   0.0555558   0.0000000), wk =   0.0000000
        k(  113) = (   0.2222222  -0.0000000   0.0000000), wk =   0.0061728
        k(  114) = (   0.0555552  -0.1666664   0.0000000), wk =   0.0000000
        k(  115) = (   0.2777778  -0.2777778   0.0000000), wk =   0.0061728
        k(  116) = (   0.1111108  -0.4444442   0.0000000), wk =   0.0000000
        k(  117) = (  -0.2777778  -0.0000000   0.0000000), wk =   0.0061728
        k(  118) = (  -0.4444448  -0.1666664   0.0000000), wk =   0.0000000
        k(  119) = (   0.0000000  -0.2777778   0.0000000), wk =   0.0061728
        k(  120) = (  -0.1666670  -0.4444442   0.0000000), wk =   0.0000000
        k(  121) = (  -0.2777778   0.2777778   0.0000000), wk =   0.0061728
        k(  122) = (  -0.4444448   0.1111114   0.0000000), wk =   0.0000000
        k(  123) = (   0.2777778   0.0000000   0.0000000), wk =   0.0061728
        k(  124) = (   0.1111108  -0.1666664   0.0000000), wk =   0.0000000
        k(  125) = (   0.3333333  -0.3333333   0.0000000), wk =   0.0061728
        k(  126) = (   0.1666663  -0.4999997   0.0000000), wk =   0.0000000
        k(  127) = (  -0.3333333  -0.0000000   0.0000000), wk =   0.0061728
        k(  128) = (  -0.5000003  -0.1666664   0.0000000), wk =   0.0000000
        k(  129) = (   0.0000000  -0.3333333   0.0000000), wk =   0.0061728
        k(  130) = (  -0.1666670  -0.4999997   0.0000000), wk =   0.0000000
        k(  131) = (  -0.3333333   0.3333333   0.0000000), wk =   0.0061728
        k(  132) = (  -0.5000003   0.1666669   0.0000000), wk =   0.0000000
        k(  133) = (   0.3333333   0.0000000   0.0000000), wk =   0.0061728
        k(  134) = (   0.1666663  -0.1666664   0.0000000), wk =   0.0000000
        k(  135) = (   0.3888889  -0.3888889   0.0000000), wk =   0.0061728
        k(  136) = (   0.2222219  -0.5555553   0.0000000), wk =   0.0000000
        k(  137) = (  -0.3888889   0.0000000   0.0000000), wk =   0.0061728
        k(  138) = (  -0.5555559  -0.1666664   0.0000000), wk =   0.0000000
        k(  139) = (   0.0000000  -0.3888889   0.0000000), wk =   0.0061728
        k(  140) = (  -0.1666670  -0.5555553   0.0000000), wk =   0.0000000
        k(  141) = (  -0.3888889   0.3888889   0.0000000), wk =   0.0061728
        k(  142) = (  -0.5555559   0.2222225   0.0000000), wk =   0.0000000
        k(  143) = (   0.3888889  -0.0000000   0.0000000), wk =   0.0061728
        k(  144) = (   0.2222219  -0.1666664   0.0000000), wk =   0.0000000
        k(  145) = (   0.4444444  -0.4444444   0.0000000), wk =   0.0061728
        k(  146) = (   0.2777774  -0.6111108   0.0000000), wk =   0.0000000
        k(  147) = (  -0.4444444   0.0000000   0.0000000), wk =   0.0061728
        k(  148) = (  -0.6111114  -0.1666664   0.0000000), wk =   0.0000000
        k(  149) = (   0.0000000  -0.4444444   0.0000000), wk =   0.0061728
        k(  150) = (  -0.1666670  -0.6111108   0.0000000), wk =   0.0000000
        k(  151) = (  -0.4444444   0.4444444   0.0000000), wk =   0.0061728
        k(  152) = (  -0.6111114   0.2777781   0.0000000), wk =   0.0000000
        k(  153) = (   0.4444444  -0.0000000   0.0000000), wk =   0.0061728
        k(  154) = (   0.2777774  -0.1666664   0.0000000), wk =   0.0000000
        k(  155) = (  -0.5000000   0.5000000   0.0000000), wk =   0.0061728
        k(  156) = (  -0.6666670   0.3333336   0.0000000), wk =   0.0000000
        k(  157) = (   0.5000000   0.0000000   0.0000000), wk =   0.0061728
        k(  158) = (   0.3333330  -0.1666664   0.0000000), wk =   0.0000000
        k(  159) = (  -0.0555556   0.1111111   0.0000000), wk =   0.0061728
        k(  160) = (  -0.2222226  -0.0555553   0.0000000), wk =   0.0000000
        k(  161) = (   0.0555556  -0.1111111   0.0000000), wk =   0.0061728
        k(  162) = (  -0.1111114  -0.2777775   0.0000000), wk =   0.0000000
        k(  163) = (  -0.1111111   0.0555556   0.0000000), wk =   0.0061728
        k(  164) = (  -0.2777781  -0.1111108   0.0000000), wk =   0.0000000
        k(  165) = (  -0.0555556  -0.0555556   0.0000000), wk =   0.0061728
        k(  166) = (  -0.2222226  -0.2222219   0.0000000), wk =   0.0000000
        k(  167) = (   0.1111111  -0.0555556   0.0000000), wk =   0.0061728
        k(  168) = (  -0.0555559  -0.2222219   0.0000000), wk =   0.0000000
        k(  169) = (  -0.0555556   0.1666667   0.0000000), wk =   0.0061728
        k(  170) = (  -0.2222226   0.0000003   0.0000000), wk =   0.0000000
        k(  171) = (   0.1111111  -0.1666667   0.0000000), wk =   0.0061728
        k(  172) = (  -0.0555559  -0.3333331   0.0000000), wk =   0.0000000
        k(  173) = (  -0.1666667   0.0555556   0.0000000), wk =   0.0061728
        k(  174) = (  -0.3333337  -0.1111108   0.0000000), wk =   0.0000000
        k(  175) = (  -0.1111111  -0.0555556   0.0000000), wk =   0.0061728
        k(  176) = (  -0.2777781  -0.2222219   0.0000000), wk =   0.0000000
        k(  177) = (   0.1666667  -0.1111111   0.0000000), wk =   0.0061728
        k(  178) = (  -0.0000003  -0.2777775   0.0000000), wk =   0.0000000
        k(  179) = (  -0.0555556  -0.1111111   0.0000000), wk =   0.0061728
        k(  180) = (  -0.2222226  -0.2777775   0.0000000), wk =   0.0000000
        k(  181) = (   0.0555556  -0.1666667   0.0000000), wk =   0.0061728
        k(  182) = (  -0.1111114  -0.3333331   0.0000000), wk =   0.0000000
        k(  183) = (  -0.1111111   0.1666667   0.0000000), wk =   0.0061728
        k(  184) = (  -0.2777781   0.0000003   0.0000000), wk =   0.0000000
        k(  185) = (   0.1666667  -0.0555556   0.0000000), wk =   0.0061728
        k(  186) = (  -0.0000003  -0.2222219   0.0000000), wk =   0.0000000
        k(  187) = (   0.1111111   0.0555556   0.0000000), wk =   0.0061728
        k(  188) = (  -0.0555559  -0.1111108   0.0000000), wk =   0.0000000
        k(  189) = (  -0.1666667   0.1111111   0.0000000), wk =   0.0061728
        k(  190) = (  -0.3333337  -0.0555553   0.0000000), wk =   0.0000000
        k(  191) = (  -0.0555556   0.2222222   0.0000000), wk =   0.0061728
        k(  192) = (  -0.2222226   0.0555558   0.0000000), wk =   0.0000000
        k(  193) = (   0.1666667  -0.2222222   0.0000000), wk =   0.0061728
        k(  194) = (  -0.0000003  -0.3888886   0.0000000), wk =   0.0000000
        k(  195) = (  -0.2222222   0.0555556   0.0000000), wk =   0.0061728
        k(  196) = (  -0.3888892  -0.1111108   0.0000000), wk =   0.0000000
        k(  197) = (  -0.1666667  -0.0555556   0.0000000), wk =   0.0061728
        k(  198) = (  -0.3333337  -0.2222219   0.0000000), wk =   0.0000000
        k(  199) = (   0.2222222  -0.1666667   0.0000000), wk =   0.0061728
        k(  200) = (   0.0555552  -0.3333331   0.0000000), wk =   0.0000000
        k(  201) = (  -0.0555556  -0.1666667   0.0000000), wk =   0.0061728
        k(  202) = (  -0.2222226  -0.3333331   0.0000000), wk =   0.0000000
        k(  203) = (   0.0555556  -0.2222222   0.0000000), wk =   0.0061728
        k(  204) = (  -0.1111114  -0.3888886   0.0000000), wk =   0.0000000
        k(  205) = (  -0.1666667   0.2222222   0.0000000), wk =   0.0061728
        k(  206) = (  -0.3333337   0.0555558   0.0000000), wk =   0.0000000
        k(  207) = (   0.2222222  -0.0555556   0.0000000), wk =   0.0061728
        k(  208) = (   0.0555552  -0.2222219   0.0000000), wk =   0.0000000
        k(  209) = (   0.1666667   0.0555556   0.0000000), wk =   0.0061728
        k(  210) = (  -0.0000003  -0.1111108   0.0000000), wk =   0.0000000
        k(  211) = (  -0.2222222   0.1666667   0.0000000), wk =   0.0061728
        k(  212) = (  -0.3888892   0.0000003   0.0000000), wk =   0.0000000
        k(  213) = (  -0.0555556   0.2777778   0.0000000), wk =   0.0061728
        k(  214) = (  -0.2222226   0.1111114   0.0000000), wk =   0.0000000
        k(  215) = (   0.2222222  -0.2777778   0.0000000), wk =   0.0061728
        k(  216) = (   0.0555552  -0.4444442   0.0000000), wk =   0.0000000
        k(  217) = (  -0.2777778   0.0555556   0.0000000), wk =   0.0061728
        k(  218) = (  -0.4444448  -0.1111108   0.0000000), wk =   0.0000000
        k(  219) = (  -0.2222222  -0.0555556   0.0000000), wk =   0.0061728
        k(  220) = (  -0.3888892  -0.2222219   0.0000000), wk =   0.0000000
        k(  221) = (   0.2777778  -0.2222222   0.0000000), wk =   0.0061728
        k(  222) = (   0.1111108  -0.3888886   0.0000000), wk =   0.0000000
        k(  223) = (  -0.0555556  -0.2222222   0.0000000), wk =   0.0061728
        k(  224) = (  -0.2222226  -0.3888886   0.0000000), wk =   0.0000000
        k(  225) = (   0.0555556  -0.2777778   0.0000000), wk =   0.0061728
        k(  226) = (  -0.1111114  -0.4444442   0.0000000), wk =   0.0000000
        k(  227) = (  -0.2222222   0.2777778   0.0000000), wk =   0.0061728
        k(  228) = (  -0.3888892   0.1111114   0.0000000), wk =   0.0000000
        k(  229) = (   0.2777778  -0.0555556   0.0000000), wk =   0.0061728
        k(  230) = (   0.1111108  -0.2222219   0.0000000), wk =   0.0000000
        k(  231) = (   0.2222222   0.0555556   0.0000000), wk =   0.0061728
        k(  232) = (   0.0555552  -0.1111108   0.0000000), wk =   0.0000000
        k(  233) = (  -0.2777778   0.2222222   0.0000000), wk =   0.0061728
        k(  234) = (  -0.4444448   0.0555558   0.0000000), wk =   0.0000000
        k(  235) = (  -0.0555556   0.3333333   0.0000000), wk =   0.0061728
        k(  236) = (  -0.2222226   0.1666669   0.0000000), wk =   0.0000000
        k(  237) = (   0.2777778  -0.3333333   0.0000000), wk =   0.0061728
        k(  238) = (   0.1111108  -0.4999997   0.0000000), wk =   0.0000000
        k(  239) = (  -0.3333333   0.0555556   0.0000000), wk =   0.0061728
        k(  240) = (  -0.5000003  -0.1111108   0.0000000), wk =   0.0000000
        k(  241) = (  -0.2777778  -0.0555556   0.0000000), wk =   0.0061728
        k(  242) = (  -0.4444448  -0.2222219   0.0000000), wk =   0.0000000
        k(  243) = (   0.3333333  -0.2777778   0.0000000), wk =   0.0061728
        k(  244) = (   0.1666663  -0.4444442   0.0000000), wk =   0.0000000
        k(  245) = (  -0.0555556  -0.2777778   0.0000000), wk =   0.0061728
        k(  246) = (  -0.2222226  -0.4444442   0.0000000), wk =   0.0000000
        k(  247) = (   0.0555556  -0.3333333   0.0000000), wk =   0.0061728
        k(  248) = (  -0.1111114  -0.4999997   0.0000000), wk =   0.0000000
        k(  249) = (  -0.2777778   0.3333333   0.0000000), wk =   0.0061728
        k(  250) = (  -0.4444448   0.1666669   0.0000000), wk =   0.0000000
        k(  251) = (   0.3333333  -0.0555556   0.0000000), wk =   0.0061728
        k(  252) = (   0.1666663  -0.2222219   0.0000000), wk =   0.0000000
        k(  253) = (   0.2777778   0.0555556   0.0000000), wk =   0.0061728
        k(  254) = (   0.1111108  -0.1111108   0.0000000), wk =   0.0000000
        k(  255) = (  -0.3333333   0.2777778   0.0000000), wk =   0.0061728
        k(  256) = (  -0.5000003   0.1111114   0.0000000), wk =   0.0000000
        k(  257) = (  -0.0555556   0.3888889   0.0000000), wk =   0.0061728
        k(  258) = (  -0.2222226   0.2222225   0.0000000), wk =   0.0000000
        k(  259) = (   0.3333333  -0.3888889   0.0000000), wk =   0.0061728
        k(  260) = (   0.1666663  -0.5555553   0.0000000), wk =   0.0000000
        k(  261) = (  -0.3888889   0.0555556   0.0000000), wk =   0.0061728
        k(  262) = (  -0.5555559  -0.1111108   0.0000000), wk =   0.0000000
        k(  263) = (  -0.3333333  -0.0555556   0.0000000), wk =   0.0061728
        k(  264) = (  -0.5000003  -0.2222219   0.0000000), wk =   0.0000000
        k(  265) = (   0.3888889  -0.3333333   0.0000000), wk =   0.0061728
        k(  266) = (   0.2222219  -0.4999997   0.0000000), wk =   0.0000000
        k(  267) = (  -0.0555556  -0.3333333   0.0000000), wk =   0.0061728
        k(  268) = (  -0.2222226  -0.4999997   0.0000000), wk =   0.0000000
        k(  269) = (   0.0555556  -0.3888889   0.0000000), wk =   0.0061728
        k(  270) = (  -0.1111114  -0.5555553   0.0000000), wk =   0.0000000
        k(  271) = (  -0.3333333   0.3888889   0.0000000), wk =   0.0061728
        k(  272) = (  -0.5000003   0.2222225   0.0000000), wk =   0.0000000
        k(  273) = (   0.3888889  -0.0555556   0.0000000), wk =   0.0061728
        k(  274) = (   0.2222219  -0.2222219   0.0000000), wk =   0.0000000
        k(  275) = (   0.3333333   0.0555556   0.0000000), wk =   0.0061728
        k(  276) = (   0.1666663  -0.1111108   0.0000000), wk =   0.0000000
        k(  277) = (  -0.3888889   0.3333333   0.0000000), wk =   0.0061728
        k(  278) = (  -0.5555559   0.1666669   0.0000000), wk =   0.0000000
        k(  279) = (  -0.0555556   0.4444444   0.0000000), wk =   0.0061728
        k(  280) = (  -0.2222226   0.2777781   0.0000000), wk =   0.0000000
        k(  281) = (   0.3888889  -0.4444444   0.0000000), wk =   0.0061728
        k(  282) = (   0.2222219  -0.6111108   0.0000000), wk =   0.0000000
        k(  283) = (  -0.4444444   0.0555556   0.0000000), wk =   0.0061728
        k(  284) = (  -0.6111114  -0.1111108   0.0000000), wk =   0.0000000
        k(  285) = (  -0.3888889  -0.0555556   0.0000000), wk =   0.0061728
        k(  286) = (  -0.5555559  -0.2222219   0.0000000), wk =   0.0000000
        k(  287) = (   0.4444444  -0.3888889   0.0000000), wk =   0.0061728
        k(  288) = (   0.2777774  -0.5555553   0.0000000), wk =   0.0000000
        k(  289) = (  -0.0555556  -0.3888889   0.0000000), wk =   0.0061728
        k(  290) = (  -0.2222226  -0.5555553   0.0000000), wk =   0.0000000
        k(  291) = (   0.0555556  -0.4444444   0.0000000), wk =   0.0061728
        k(  292) = (  -0.1111114  -0.6111108   0.0000000), wk =   0.0000000
        k(  293) = (  -0.3888889   0.4444444   0.0000000), wk =   0.0061728
        k(  294) = (  -0.5555559   0.2777781   0.0000000), wk =   0.0000000
        k(  295) = (   0.4444444  -0.0555556   0.0000000), wk =   0.0061728
        k(  296) = (   0.2777774  -0.2222219   0.0000000), wk =   0.0000000
        k(  297) = (   0.3888889   0.0555556   0.0000000), wk =   0.0061728
        k(  298) = (   0.2222219  -0.1111108   0.0000000), wk =   0.0000000
        k(  299) = (  -0.4444444   0.3888889   0.0000000), wk =   0.0061728
        k(  300) = (  -0.6111114   0.2222225   0.0000000), wk =   0.0000000
        k(  301) = (  -0.0555556   0.5000000   0.0000000), wk =   0.0061728
        k(  302) = (  -0.2222226   0.3333336   0.0000000), wk =   0.0000000
        k(  303) = (   0.4444444  -0.5000000   0.0000000), wk =   0.0061728
        k(  304) = (   0.2777774  -0.6666664   0.0000000), wk =   0.0000000
        k(  305) = (  -0.5000000   0.0555556   0.0000000), wk =   0.0061728
        k(  306) = (  -0.6666670  -0.1111108   0.0000000), wk =   0.0000000
        k(  307) = (  -0.4444444  -0.0555556   0.0000000), wk =   0.0061728
[...]
                     (   0.00000   0.00000   ) 

     Representation     4      1 modes -  To be done
     Irreps are as follows:

                     mode #   4
                     (  -0.00000  -0.00000   ) 
                     (  -0.00000  -0.00000   ) 
                     (  -0.00000  -0.00000   ) 
                     (   0.00000  -0.00000   ) 
                     (   0.00000   0.00000   ) 
                     (  -0.70711  -0.00000   ) 
                     (  -0.00000   0.00000   ) 
                     (  -0.00000  -0.00000   ) 
                     (   0.70711   0.00000   ) 

     Representation     5      1 modes -  To be done
     Irreps are as follows:

                     mode #   5
                     (  -0.70711  -0.00000   ) 
                     (  -0.00000   0.70711   ) 
                     (  -0.00000  -0.00000   ) 
                     (  -0.00000  -0.00000   ) 
                     (  -0.00000  -0.00000   ) 
                     (  -0.00000  -0.00000   ) 
                     (  -0.00000  -0.00000   ) 
                     (  -0.00000  -0.00000   ) 
                     (  -0.00000  -0.00000   ) 

     Representation     6      1 modes -  To be done
     Irreps are as follows:

                     mode #   6
                     (   0.00000  -0.00000   ) 
                     (   0.00000  -0.00000   ) 
                     (   0.00000  -0.00000   ) 
                     (  -0.50000  -0.00000   ) 
                     (  -0.00000   0.50000   ) 
                     (  -0.00000   0.00000   ) 
                     (   0.50000   0.00000   ) 
                     (  -0.00000  -0.50000   ) 
                     (  -0.00000   0.00000   ) 

     Representation     7      1 modes -  To be done
     Irreps are as follows:

                     mode #   7
                     (  -0.00000  -0.00000   ) 
                     (  -0.00000  -0.00000   ) 
                     (  -1.00000  -0.00000   ) 
                     (  -0.00000  -0.00000   ) 
                     (  -0.00000  -0.00000   ) 
                     (  -0.00000  -0.00000   ) 
                     (  -0.00000  -0.00000   ) 
                     (  -0.00000  -0.00000   ) 
                     (  -0.00000  -0.00000   ) 

     Representation     8      1 modes -  To be done
     Irreps are as follows:

                     mode #   8
                     (   0.00000  -0.00000   ) 
                     (   0.00000  -0.00000   ) 
                     (   0.00000  -0.00000   ) 
                     (  -0.50000   0.00000   ) 
                     (  -0.00000  -0.50000   ) 
                     (  -0.00000  -0.00000   ) 
                     (   0.50000  -0.00000   ) 
                     (   0.00000   0.50000   ) 
                     (   0.00000  -0.00000   ) 

     Representation     9      1 modes -  To be done
     Irreps are as follows:

                     mode #   9
                     (  -0.00000  -0.00000   ) 
                     (  -0.00000  -0.00000   ) 
                     (  -0.00000  -0.00000   ) 
                     (   0.00000  -0.00000   ) 
                     (   0.00000   0.00000   ) 
                     (  -0.70711   0.00000   ) 
                     (  -0.00000   0.00000   ) 
                     (  -0.00000  -0.00000   ) 
                     (  -0.70711  -0.00000   ) 



     Alpha used in Ewald sum =   2.8000
     PHONON       :      1h 1m CPU      1h 4m WALL



     Representation #   1 mode #   1

     Self-consistent Calculation

      iter #   1 total cpu time :  3881.0 secs   av.it.:   9.8
      thresh= 1.000E-02 alpha_mix =  0.400 |ddv_scf|^2 =  1.646E-07

      iter #   2 total cpu time :  3892.5 secs   av.it.:  18.9
      thresh= 4.058E-05 alpha_mix =  0.400 |ddv_scf|^2 =  4.014E-09

      iter #   3 total cpu time :  3904.4 secs   av.it.:  19.1
      thresh= 6.335E-06 alpha_mix =  0.400 |ddv_scf|^2 =  1.994E-10

      iter #   4 total cpu time :  3917.1 secs   av.it.:  19.4
      thresh= 1.412E-06 alpha_mix =  0.400 |ddv_scf|^2 =  1.436E-11

      iter #   5 total cpu time :  3928.7 secs   av.it.:  19.2
      thresh= 3.790E-07 alpha_mix =  0.400 |ddv_scf|^2 =  1.347E-12

      iter #   6 total cpu time :  3940.7 secs   av.it.:  19.9
      thresh= 1.161E-07 alpha_mix =  0.400 |ddv_scf|^2 =  6.057E-14

      iter #   7 total cpu time :  3952.2 secs   av.it.:  18.9
      thresh= 2.461E-08 alpha_mix =  0.400 |ddv_scf|^2 =  1.534E-14

      iter #   8 total cpu time :  3964.3 secs   av.it.:  20.1
      thresh= 1.239E-08 alpha_mix =  0.400 |ddv_scf|^2 =  1.253E-16

     End of self-consistent calculation

     Convergence has been achieved 


     Representation #   2 mode #   2

     Self-consistent Calculation

      iter #   1 total cpu time :  3972.3 secs   av.it.:  11.4
      thresh= 1.000E-02 alpha_mix =  0.400 |ddv_scf|^2 =  1.365E-06

      iter #   2 total cpu time :  3983.7 secs   av.it.:  18.8
      thresh= 1.168E-04 alpha_mix =  0.400 |ddv_scf|^2 =  4.542E-08

      iter #   3 total cpu time :  3995.0 secs   av.it.:  18.8
      thresh= 2.131E-05 alpha_mix =  0.400 |ddv_scf|^2 =  1.122E-09

      iter #   4 total cpu time :  4006.9 secs   av.it.:  19.8
      thresh= 3.349E-06 alpha_mix =  0.400 |ddv_scf|^2 =  6.858E-11

      iter #   5 total cpu time :  4018.6 secs   av.it.:  19.6
      thresh= 8.281E-07 alpha_mix =  0.400 |ddv_scf|^2 =  1.059E-11

      iter #   6 total cpu time :  4030.5 secs   av.it.:  19.9
      thresh= 3.255E-07 alpha_mix =  0.400 |ddv_scf|^2 =  2.130E-13

      iter #   7 total cpu time :  4042.2 secs   av.it.:  19.6
      thresh= 4.616E-08 alpha_mix =  0.400 |ddv_scf|^2 =  4.165E-14

      iter #   8 total cpu time :  4054.3 secs   av.it.:  20.2
      thresh= 2.041E-08 alpha_mix =  0.400 |ddv_scf|^2 =  8.797E-16

     End of self-consistent calculation

     Convergence has been achieved 


     Representation #   3 mode #   3

     Self-consistent Calculation

      iter #   1 total cpu time :  4061.3 secs   av.it.:   9.7
      thresh= 1.000E-02 alpha_mix =  0.400 |ddv_scf|^2 =  6.687E-07

      iter #   2 total cpu time :  4072.7 secs   av.it.:  18.8
      thresh= 8.177E-05 alpha_mix =  0.400 |ddv_scf|^2 =  2.958E-06

      iter #   3 total cpu time :  4083.2 secs   av.it.:  17.0
      thresh= 1.720E-04 alpha_mix =  0.400 |ddv_scf|^2 =  2.756E-08

      iter #   4 total cpu time :  4093.9 secs   av.it.:  17.7
      thresh= 1.660E-05 alpha_mix =  0.400 |ddv_scf|^2 =  7.650E-09

      iter #   5 total cpu time :  4104.4 secs   av.it.:  17.0
      thresh= 8.746E-06 alpha_mix =  0.400 |ddv_scf|^2 =  4.464E-11

      iter #   6 total cpu time :  4116.1 secs   av.it.:  19.5
      thresh= 6.682E-07 alpha_mix =  0.400 |ddv_scf|^2 =  2.214E-12

      iter #   7 total cpu time :  4127.6 secs   av.it.:  18.9
      thresh= 1.488E-07 alpha_mix =  0.400 |ddv_scf|^2 =  2.263E-13

      iter #   8 total cpu time :  4139.4 secs   av.it.:  19.7
      thresh= 4.757E-08 alpha_mix =  0.400 |ddv_scf|^2 =  1.182E-14

      iter #   9 total cpu time :  4150.8 secs   av.it.:  18.6
      thresh= 1.087E-08 alpha_mix =  0.400 |ddv_scf|^2 =  1.309E-15

      iter #  10 total cpu time :  4162.0 secs   av.it.:  18.5
      thresh= 3.618E-09 alpha_mix =  0.400 |ddv_scf|^2 =  1.382E-16

     End of self-consistent calculation

     Convergence has been achieved 


     Representation #   4 mode #   4

     Self-consistent Calculation

      iter #   1 total cpu time :  4168.9 secs   av.it.:   9.4
      thresh= 1.000E-02 alpha_mix =  0.400 |ddv_scf|^2 =  7.069E-08

      iter #   2 total cpu time :  4180.5 secs   av.it.:  19.0
      thresh= 2.659E-05 alpha_mix =  0.400 |ddv_scf|^2 =  4.776E-09

      iter #   3 total cpu time :  4191.9 secs   av.it.:  18.8
      thresh= 6.911E-06 alpha_mix =  0.400 |ddv_scf|^2 =  4.748E-10

      iter #   4 total cpu time :  4203.3 secs   av.it.:  18.7
      thresh= 2.179E-06 alpha_mix =  0.400 |ddv_scf|^2 =  4.666E-11

      iter #   5 total cpu time :  4215.1 secs   av.it.:  19.7
      thresh= 6.831E-07 alpha_mix =  0.400 |ddv_scf|^2 =  2.426E-12

      iter #   6 total cpu time :  4226.6 secs   av.it.:  19.2
      thresh= 1.558E-07 alpha_mix =  0.400 |ddv_scf|^2 =  3.943E-13

      iter #   7 total cpu time :  4238.2 secs   av.it.:  19.4
      thresh= 6.279E-08 alpha_mix =  0.400 |ddv_scf|^2 =  7.732E-14

      iter #   8 total cpu time :  4249.8 secs   av.it.:  19.3
      thresh= 2.781E-08 alpha_mix =  0.400 |ddv_scf|^2 =  7.506E-15

      iter #   9 total cpu time :  4261.4 secs   av.it.:  19.2
      thresh= 8.664E-09 alpha_mix =  0.400 |ddv_scf|^2 =  1.208E-16

     End of self-consistent calculation

     Convergence has been achieved 


     Representation #   5 mode #   5

     Self-consistent Calculation

      iter #   1 total cpu time :  4269.3 secs   av.it.:  11.5
      thresh= 1.000E-02 alpha_mix =  0.400 |ddv_scf|^2 =  1.616E-06

      iter #   2 total cpu time :  4280.7 secs   av.it.:  18.9
      thresh= 1.271E-04 alpha_mix =  0.400 |ddv_scf|^2 =  2.240E-07

      iter #   3 total cpu time :  4292.0 secs   av.it.:  18.6
      thresh= 4.733E-05 alpha_mix =  0.400 |ddv_scf|^2 =  3.504E-09

      iter #   4 total cpu time :  4303.5 secs   av.it.:  19.0
      thresh= 5.919E-06 alpha_mix =  0.400 |ddv_scf|^2 =  2.197E-10

      iter #   5 total cpu time :  4315.4 secs   av.it.:  19.9
      thresh= 1.482E-06 alpha_mix =  0.400 |ddv_scf|^2 =  3.123E-11

      iter #   6 total cpu time :  4327.1 secs   av.it.:  19.6
      thresh= 5.588E-07 alpha_mix =  0.400 |ddv_scf|^2 =  4.187E-12

      iter #   7 total cpu time :  4339.0 secs   av.it.:  19.8
      thresh= 2.046E-07 alpha_mix =  0.400 |ddv_scf|^2 =  2.699E-13

      iter #   8 total cpu time :  4350.9 secs   av.it.:  19.9
      thresh= 5.196E-08 alpha_mix =  0.400 |ddv_scf|^2 =  1.569E-14

      iter #   9 total cpu time :  4363.0 secs   av.it.:  20.3
      thresh= 1.252E-08 alpha_mix =  0.400 |ddv_scf|^2 =  2.496E-16

     End of self-consistent calculation

     Convergence has been achieved 


     Representation #   6 mode #   6

     Self-consistent Calculation

      iter #   1 total cpu time :  4369.7 secs   av.it.:   9.0
      thresh= 1.000E-02 alpha_mix =  0.400 |ddv_scf|^2 =  7.442E-08

      iter #   2 total cpu time :  4381.1 secs   av.it.:  18.8
      thresh= 2.728E-05 alpha_mix =  0.400 |ddv_scf|^2 =  7.147E-10

      iter #   3 total cpu time :  4392.2 secs   av.it.:  18.4
      thresh= 2.673E-06 alpha_mix =  0.400 |ddv_scf|^2 =  8.794E-11

      iter #   4 total cpu time :  4403.9 secs   av.it.:  19.4
      thresh= 9.378E-07 alpha_mix =  0.400 |ddv_scf|^2 =  1.631E-12

      iter #   5 total cpu time :  4415.3 secs   av.it.:  19.0
      thresh= 1.277E-07 alpha_mix =  0.400 |ddv_scf|^2 =  2.016E-13

      iter #   6 total cpu time :  4427.1 secs   av.it.:  19.7
      thresh= 4.490E-08 alpha_mix =  0.400 |ddv_scf|^2 =  3.941E-15

      iter #   7 total cpu time :  4438.5 secs   av.it.:  18.8
      thresh= 6.278E-09 alpha_mix =  0.400 |ddv_scf|^2 =  7.512E-16

     End of self-consistent calculation

     Convergence has been achieved 


     Representation #   7 mode #   7

     Self-consistent Calculation

      iter #   1 total cpu time :  4446.1 secs   av.it.:  10.9
      thresh= 1.000E-02 alpha_mix =  0.400 |ddv_scf|^2 =  5.717E-07

      iter #   2 total cpu time :  4457.7 secs   av.it.:  19.4
      thresh= 7.561E-05 alpha_mix =  0.400 |ddv_scf|^2 =  6.976E-09

      iter #   3 total cpu time :  4469.3 secs   av.it.:  19.4
      thresh= 8.352E-06 alpha_mix =  0.400 |ddv_scf|^2 =  8.328E-10

      iter #   4 total cpu time :  4481.3 secs   av.it.:  19.9
      thresh= 2.886E-06 alpha_mix =  0.400 |ddv_scf|^2 =  2.875E-11

      iter #   5 total cpu time :  4493.0 secs   av.it.:  19.7
      thresh= 5.362E-07 alpha_mix =  0.400 |ddv_scf|^2 =  2.431E-12

      iter #   6 total cpu time :  4504.9 secs   av.it.:  19.9
      thresh= 1.559E-07 alpha_mix =  0.400 |ddv_scf|^2 =  7.608E-14

      iter #   7 total cpu time :  4517.0 secs   av.it.:  20.3
      thresh= 2.758E-08 alpha_mix =  0.400 |ddv_scf|^2 =  2.350E-15

      iter #   8 total cpu time :  4529.1 secs   av.it.:  20.3
      thresh= 4.848E-09 alpha_mix =  0.400 |ddv_scf|^2 =  2.179E-16

     End of self-consistent calculation

     Convergence has been achieved 


     Representation #   8 mode #   8

     Self-consistent Calculation

      iter #   1 total cpu time :  4535.9 secs   av.it.:   9.3
      thresh= 1.000E-02 alpha_mix =  0.400 |ddv_scf|^2 =  8.705E-08

      iter #   2 total cpu time :  4547.3 secs   av.it.:  18.9
      thresh= 2.950E-05 alpha_mix =  0.400 |ddv_scf|^2 =  4.175E-10

      iter #   3 total cpu time :  4558.8 secs   av.it.:  19.0
      thresh= 2.043E-06 alpha_mix =  0.400 |ddv_scf|^2 =  1.146E-10

      iter #   4 total cpu time :  4570.4 secs   av.it.:  19.5
      thresh= 1.070E-06 alpha_mix =  0.400 |ddv_scf|^2 =  4.219E-12

      iter #   5 total cpu time :  4581.9 secs   av.it.:  19.1
      thresh= 2.054E-07 alpha_mix =  0.400 |ddv_scf|^2 =  3.085E-13

      iter #   6 total cpu time :  4593.7 secs   av.it.:  19.7
      thresh= 5.554E-08 alpha_mix =  0.400 |ddv_scf|^2 =  2.653E-14

      iter #   7 total cpu time :  4605.6 secs   av.it.:  20.0
      thresh= 1.629E-08 alpha_mix =  0.400 |ddv_scf|^2 =  5.571E-16

     End of self-consistent calculation

     Convergence has been achieved 


     Representation #   9 mode #   9

     Self-consistent Calculation

      iter #   1 total cpu time :  4612.2 secs   av.it.:   8.9
      thresh= 1.000E-02 alpha_mix =  0.400 |ddv_scf|^2 =  1.646E-08

      iter #   2 total cpu time :  4623.7 secs   av.it.:  18.8
      thresh= 1.283E-05 alpha_mix =  0.400 |ddv_scf|^2 =  1.361E-09

      iter #   3 total cpu time :  4635.3 secs   av.it.:  19.1
      thresh= 3.689E-06 alpha_mix =  0.400 |ddv_scf|^2 =  1.548E-10

      iter #   4 total cpu time :  4646.5 secs   av.it.:  18.6
      thresh= 1.244E-06 alpha_mix =  0.400 |ddv_scf|^2 =  1.797E-11

      iter #   5 total cpu time :  4658.3 secs   av.it.:  19.4
      thresh= 4.239E-07 alpha_mix =  0.400 |ddv_scf|^2 =  3.542E-13

      iter #   6 total cpu time :  4669.3 secs   av.it.:  18.0
      thresh= 5.951E-08 alpha_mix =  0.400 |ddv_scf|^2 =  1.156E-13

      iter #   7 total cpu time :  4680.1 secs   av.it.:  17.9
      thresh= 3.399E-08 alpha_mix =  0.400 |ddv_scf|^2 =  2.097E-14

      iter #   8 total cpu time :  4691.2 secs   av.it.:  18.2
      thresh= 1.448E-08 alpha_mix =  0.400 |ddv_scf|^2 =  7.550E-17

     End of self-consistent calculation

     Convergence has been achieved 

     Number of q in the star =    2
     List of q in the star:
          1  -0.333333000  -0.577350000   0.000000000
          2   0.333333000  -0.577350000  -0.000000000

     Diagonalizing the dynamical matrix

     q = (   -0.333333000  -0.577350000   0.000000000 ) 

 **************************************************************************
     freq (    1) =       5.336337 [THz] =     178.001055 [cm-1]
     freq (    2) =       5.511901 [THz] =     183.857218 [cm-1]
     freq (    3) =       6.995397 [THz] =     233.341336 [cm-1]
     freq (    4) =       9.675847 [THz] =     322.751499 [cm-1]
     freq (    5) =      10.056484 [THz] =     335.448184 [cm-1]
     freq (    6) =      10.058519 [THz] =     335.516079 [cm-1]
     freq (    7) =      11.253323 [THz] =     375.370460 [cm-1]
     freq (    8) =      11.451960 [THz] =     381.996252 [cm-1]
     freq (    9) =      11.837010 [THz] =     394.840138 [cm-1]
 **************************************************************************

     Mode symmetry, C_3h (-6)   point group:

     freq (   1-   1) =        178.0  [cm-1]   --> E''                
     freq (   2-   2) =        183.9  [cm-1]   --> E'*                
     freq (   3-   3) =        233.3  [cm-1]   --> A'                 
     freq (   4-   4) =        322.8  [cm-1]   --> E''*               
     freq (   5-   5) =        335.4  [cm-1]   --> E'                 
     freq (   6-   6) =        335.5  [cm-1]   --> A''                
     freq (   7-   7) =        375.4  [cm-1]   --> E''                
     freq (   8-   8) =        382.0  [cm-1]   --> A'                 
     freq (   9-   9) =        394.8  [cm-1]   --> E'*                

     PHONON       :      1h14m CPU      1h18m WALL

     INITIALIZATION: 
     phq_setup    :      0.69s CPU      0.72s WALL (       3 calls)
     phq_init     :      4.03s CPU      4.31s WALL (       3 calls)

     phq_init     :      4.03s CPU      4.31s WALL (       3 calls)
     set_drhoc    :      0.01s CPU      0.01s WALL (       7 calls)
     init_vloc    :      0.08s CPU      0.08s WALL (       4 calls)
     init_us_1    :      0.00s CPU      0.00s WALL (       4 calls)
     init_us_2    :      7.74s CPU      8.13s WALL (   60780 calls)

     DYNAMICAL MATRIX:
     dynmat0      :      1.55s CPU      1.58s WALL (       2 calls)
     dynmat_us    :      1.50s CPU      1.53s WALL (       2 calls)
     d2ionq       :      0.02s CPU      0.02s WALL (       2 calls)
     dynmatcc     :      0.03s CPU      0.03s WALL (       2 calls)
     phqscf       :   4403.42s CPU   4603.89s WALL (       3 calls)
     dynmatrix    :      0.01s CPU      0.02s WALL (       3 calls)

     phqscf       :   4403.42s CPU   4603.89s WALL (       3 calls)
     solve_linter :   4399.04s CPU   4599.10s WALL (      22 calls)
     sth_kernel   :   4313.07s CPU   4498.89s WALL (     198 calls)
     h_prec       :      3.42s CPU      3.57s WALL (   48316 calls)
     apply_dpot_b :    159.36s CPU    167.79s WALL (   43438 calls)
     ortho        :      5.37s CPU      5.64s WALL (   48316 calls)
     cgsolve      :   3948.92s CPU   4114.24s WALL (   48316 calls)
     incdrhoscf   :    176.67s CPU    186.60s WALL (   48316 calls)
                                        0.00s GPU  (   48316 calls)
     dv_of_drho   :      1.80s CPU      1.86s WALL (     198 calls)
     mix_pot      :      3.31s CPU      6.32s WALL (     198 calls)
     drhodv       :      4.35s CPU      4.50s WALL (      22 calls)
     psymdvscf    :     49.87s CPU     55.38s WALL (     198 calls)

     dvqpsi_us    :     26.21s CPU     27.58s WALL (    5202 calls)
                                        0.00s GPU  (    5202 calls)
     dvqpsi_us_on :      4.57s CPU      4.71s WALL (    5202 calls)

     add_vuspsi   :     88.15s CPU     91.99s WALL ( 1280753 calls)


      General routines
     calbec       :    310.74s CPU    323.79s WALL ( 2567578 calls)
     fft          :      3.64s CPU      3.87s WALL (    3245 calls)
     ffts         :      2.87s CPU      3.02s WALL (    5802 calls)
     fftw         :   3440.11s CPU   3588.34s WALL (25729276 calls)
     davcio       :     13.23s CPU     16.14s WALL (  256786 calls)
     write_rec    :      0.25s CPU      3.19s WALL (     220 calls)

      Additional routines
     ch_psi       :   3861.99s CPU   4023.15s WALL ( 1260381 calls)
     last         :    274.92s CPU    285.94s WALL ( 1260381 calls)
     Hesh         :      4.62s CPU      4.89s WALL ( 1260381 calls)
     ch_psi_all_k :    264.89s CPU    275.54s WALL ( 1260381 calls)
                                        0.00s GPU  ( 1260381 calls)
     ch_psi_calbe :    151.13s CPU    156.68s WALL ( 1260381 calls)
                                        0.00s GPU  ( 1260381 calls)
     h_psi_bgrp   :   3629.04s CPU   3780.72s WALL ( 1280753 calls)
     h_psi        :   3625.62s CPU   3777.33s WALL ( 1280753 calls)
     h_psi:pot    :   3617.33s CPU   3768.64s WALL ( 1280753 calls)
     h_psi:calbec :    162.32s CPU    168.51s WALL ( 1280753 calls)
     s_psi_bgrp   :      7.82s CPU      8.27s WALL ( 2569078 calls)


     PHONON       :      1h14m CPU      1h18m WALL


   This run was terminated on:  11:42:19  24Feb2026            

=------------------------------------------------------------------------------=
   JOB DONE.
=------------------------------------------------------------------------------=
