
     Program PWSCF v.7.5 starts on 24Feb2026 at  9:15:37 
        Git branch: HEAD
        Last git commit: 770a0b2d12928a67048e2f3da8d10d057e52179e
        Last git commit date: Tue Aug 19 09:57:12 2025 +0000
        Last git commit subject: Merge branch 'QE-7.5-RC' into 'master'

     This program is part of the open-source Quantum ESPRESSO suite
     for quantum simulation of materials; please cite
         "P. Giannozzi et al., J. Phys.:Condens. Matter 21 395502 (2009);
         "P. Giannozzi et al., J. Phys.:Condens. Matter 29 465901 (2017);
         "P. Giannozzi et al., J. Chem. Phys. 152 154105 (2020);
          URL http://www.quantum-espresso.org", 
     in publications or presentations arising from this work. More details at
     http://www.quantum-espresso.org/quote

     Parallel version (MPI), running on    64 processors

     MPI processes distributed on     2 nodes
     237313 MiB available memory on the printing compute node when the environment starts

     Waiting for input...
     Reading input from standard input

     Current dimensions of program PWSCF are:
     Max number of different atomic species (ntypx) = 10
     Max number of k-points (npk) =  40000
     Max angular momentum in pseudopotentials (lmaxx) =  4

     K-points division:     npool     =       8
     R & G space division:  proc/nbgrp/npool/nimage =       8
     Subspace diagonalization in iterative solution of the eigenvalue problem:
     a serial algorithm will be used


     Parallelization info
     --------------------
     sticks:   dense  smooth     PW     G-vecs:    dense   smooth      PW
     Min         302      96     31                81722    14778    2593
     Max         303      97     32                81749    14809    2611
     Sum        2419     769    253               653869   118307   20791

     Using Slab Decomposition



     bravais-lattice index     =            4
     lattice parameter (alat)  =       5.9477  a.u.
     unit-cell volume          =    1225.4506 (a.u.)^3
     number of atoms/cell      =            3
     number of atomic types    =            2
     number of electrons       =        26.00
     number of Kohn-Sham states=           13
     kinetic-energy cutoff     =      80.0000  Ry
     charge density cutoff     =    1000.0000  Ry
     scf convergence threshold =      1.0E-16
     mixing beta               =       0.2000
     number of iterations used =            8  plain     mixing
     energy convergence thresh.=      1.0E-09
     force convergence thresh. =      1.0E-08
     Exchange-correlation= PBESOL
                           (   1   4  10   8   0   0   0)
     nstep                     =           50


     celldm(1)=   5.947749  celldm(2)=   0.000000  celldm(3)=   6.725234
     celldm(4)=   0.000000  celldm(5)=   0.000000  celldm(6)=   0.000000

     crystal axes: (cart. coord. in units of alat)
               a(1) = (   1.000000   0.000000   0.000000 )  
               a(2) = (  -0.500000   0.866025   0.000000 )  
               a(3) = (   0.000000   0.000000   6.725234 )  

     reciprocal axes: (cart. coord. in units 2 pi/alat)
               b(1) = (  1.000000  0.577350 -0.000000 )  
               b(2) = (  0.000000  1.154701  0.000000 )  
               b(3) = (  0.000000 -0.000000  0.148694 )  


     PseudoPot. # 1 for Mo read from file:
     ../pseudo/Mo.pbesol.dojo.upf
     MD5 check sum: c40353276b9086539cda6b9e5a66907b
     Pseudo is Norm-conserving + core correction, Zval = 14.0
     Generated using ONCVPSP code by D. R. Hamann
     Using radial grid of 1640 points,  6 beta functions with: 
                l(1) =   0
                l(2) =   0
                l(3) =   1
                l(4) =   1
                l(5) =   2
                l(6) =   2

     PseudoPot. # 2 for S  read from file:
     ../pseudo/S.pbesol.dojo.upf
     MD5 check sum: 501737efeeef1fb1c631cda521d4e019
     Pseudo is Norm-conserving + core correction, Zval =  6.0
     Generated using ONCVPSP code by D. R. Hamann
     Using radial grid of 1146 points,  6 beta functions with: 
                l(1) =   0
                l(2) =   0
                l(3) =   1
                l(4) =   1
                l(5) =   2
                l(6) =   2

     atomic species   valence    mass     pseudopotential
     Mo               14.00    95.95000     Mo( 1.00)
     S                 6.00    32.06500     S ( 1.00)

     No symmetry found


                                    s                        frac. trans.

      isym =  1     identity                                     

 cryst.   s( 1) = (     1          0          0      )
                  (     0          1          0      )
                  (     0          0          1      )

 cart.    s( 1) = (  1.0000000  0.0000000  0.0000000 )
                  (  0.0000000  1.0000000  0.0000000 )
                  (  0.0000000  0.0000000  1.0000000 )


     point group C_1 (1)    
     there are  1 classes
     the character table:

       E    
A      1.00

     the symmetry operations in each class and the name of the first element:

     E        1
          identity                                               

   Cartesian axes

     site n.     atom                  positions (alat units)
         1        Mo     tau(   1) = (   0.0000000   0.5773502   0.0000000  )
         2        S      tau(   2) = (   0.5000000   0.2886751   0.4951993  )
         3        S      tau(   3) = (   0.5000000   0.2886751  -0.4951993  )

     Fixed atoms
     site n.  direction
         1    1   1   1
         2    0   0   1
         3    0   0   1

   Crystallographic axes

     site n.     atom                  positions (cryst. coord.)
         1        Mo     tau(   1) = (  0.3333333  0.6666666  0.0000000  )
         2        S      tau(   2) = (  0.6666667  0.3333333  0.0736330  )
         3        S      tau(   3) = (  0.6666667  0.3333333 -0.0736330  )

     number of k points=   164
                       cart. coord. in units 2pi/alat
        k(    1) = (   0.0000000   0.0000000   0.0000000), wk =   0.0061728
        k(    2) = (   0.0000000   0.0641500   0.0000000), wk =   0.0123457
        k(    3) = (   0.0000000   0.1283001   0.0000000), wk =   0.0123457
        k(    4) = (   0.0000000   0.1924501   0.0000000), wk =   0.0123457
        k(    5) = (   0.0000000   0.2566001   0.0000000), wk =   0.0123457
        k(    6) = (   0.0000000   0.3207501   0.0000000), wk =   0.0123457
        k(    7) = (   0.0000000   0.3849002   0.0000000), wk =   0.0123457
        k(    8) = (   0.0000000   0.4490502   0.0000000), wk =   0.0123457
        k(    9) = (   0.0000000   0.5132002   0.0000000), wk =   0.0123457
        k(   10) = (   0.0000000  -0.5773503   0.0000000), wk =   0.0061728
        k(   11) = (   0.0555556   0.0320750   0.0000000), wk =   0.0123457
        k(   12) = (   0.0555556   0.0962250   0.0000000), wk =   0.0123457
        k(   13) = (   0.0555556   0.1603751   0.0000000), wk =   0.0123457
        k(   14) = (   0.0555556   0.2245251   0.0000000), wk =   0.0123457
        k(   15) = (   0.0555556   0.2886751   0.0000000), wk =   0.0123457
        k(   16) = (   0.0555556   0.3528252   0.0000000), wk =   0.0123457
        k(   17) = (   0.0555556   0.4169752   0.0000000), wk =   0.0123457
        k(   18) = (   0.0555556   0.4811252   0.0000000), wk =   0.0123457
        k(   19) = (   0.0555556   0.5452753   0.0000000), wk =   0.0123457
        k(   20) = (   0.0555556  -0.5452753   0.0000000), wk =   0.0123457
        k(   21) = (   0.0555556  -0.4811252   0.0000000), wk =   0.0123457
        k(   22) = (   0.0555556  -0.4169752   0.0000000), wk =   0.0123457
        k(   23) = (   0.0555556  -0.3528252   0.0000000), wk =   0.0123457
        k(   24) = (   0.0555556  -0.2886751   0.0000000), wk =   0.0123457
        k(   25) = (   0.0555556  -0.2245251   0.0000000), wk =   0.0123457
        k(   26) = (   0.0555556  -0.1603751   0.0000000), wk =   0.0123457
        k(   27) = (   0.0555556  -0.0962250   0.0000000), wk =   0.0123457
        k(   28) = (   0.0555556  -0.0320750   0.0000000), wk =   0.0123457
        k(   29) = (   0.1111111   0.0641500   0.0000000), wk =   0.0123457
        k(   30) = (   0.1111111   0.1283001   0.0000000), wk =   0.0123457
        k(   31) = (   0.1111111   0.1924501   0.0000000), wk =   0.0123457
        k(   32) = (   0.1111111   0.2566001   0.0000000), wk =   0.0123457
        k(   33) = (   0.1111111   0.3207501   0.0000000), wk =   0.0123457
        k(   34) = (   0.1111111   0.3849002   0.0000000), wk =   0.0123457
        k(   35) = (   0.1111111   0.4490502   0.0000000), wk =   0.0123457
        k(   36) = (   0.1111111   0.5132002   0.0000000), wk =   0.0123457
        k(   37) = (   0.1111111   0.5773503   0.0000000), wk =   0.0123457
        k(   38) = (   0.1111111  -0.5132002   0.0000000), wk =   0.0123457
        k(   39) = (   0.1111111  -0.4490502   0.0000000), wk =   0.0123457
        k(   40) = (   0.1111111  -0.3849002   0.0000000), wk =   0.0123457
        k(   41) = (   0.1111111  -0.3207501   0.0000000), wk =   0.0123457
        k(   42) = (   0.1111111  -0.2566001   0.0000000), wk =   0.0123457
        k(   43) = (   0.1111111  -0.1924501   0.0000000), wk =   0.0123457
        k(   44) = (   0.1111111  -0.1283001   0.0000000), wk =   0.0123457
        k(   45) = (   0.1111111  -0.0641500   0.0000000), wk =   0.0123457
        k(   46) = (   0.1111111  -0.0000000   0.0000000), wk =   0.0123457
        k(   47) = (   0.1666667   0.0962250   0.0000000), wk =   0.0123457
        k(   48) = (   0.1666667   0.1603751   0.0000000), wk =   0.0123457
        k(   49) = (   0.1666667   0.2245251   0.0000000), wk =   0.0123457
        k(   50) = (   0.1666667   0.2886751   0.0000000), wk =   0.0123457
        k(   51) = (   0.1666667   0.3528252   0.0000000), wk =   0.0123457
        k(   52) = (   0.1666667   0.4169752   0.0000000), wk =   0.0123457
        k(   53) = (   0.1666667   0.4811252   0.0000000), wk =   0.0123457
        k(   54) = (   0.1666667   0.5452753   0.0000000), wk =   0.0123457
        k(   55) = (   0.1666667   0.6094253   0.0000000), wk =   0.0123457
        k(   56) = (   0.1666667  -0.4811252   0.0000000), wk =   0.0123457
        k(   57) = (   0.1666667  -0.4169752   0.0000000), wk =   0.0123457
        k(   58) = (   0.1666667  -0.3528252   0.0000000), wk =   0.0123457
        k(   59) = (   0.1666667  -0.2886751   0.0000000), wk =   0.0123457
        k(   60) = (   0.1666667  -0.2245251   0.0000000), wk =   0.0123457
        k(   61) = (   0.1666667  -0.1603751   0.0000000), wk =   0.0123457
        k(   62) = (   0.1666667  -0.0962250   0.0000000), wk =   0.0123457
        k(   63) = (   0.1666667  -0.0320750   0.0000000), wk =   0.0123457
        k(   64) = (   0.1666667   0.0320750   0.0000000), wk =   0.0123457
        k(   65) = (   0.2222222   0.1283001   0.0000000), wk =   0.0123457
        k(   66) = (   0.2222222   0.1924501   0.0000000), wk =   0.0123457
        k(   67) = (   0.2222222   0.2566001   0.0000000), wk =   0.0123457
        k(   68) = (   0.2222222   0.3207501   0.0000000), wk =   0.0123457
        k(   69) = (   0.2222222   0.3849002   0.0000000), wk =   0.0123457
        k(   70) = (   0.2222222   0.4490502   0.0000000), wk =   0.0123457
        k(   71) = (   0.2222222   0.5132002   0.0000000), wk =   0.0123457
        k(   72) = (   0.2222222   0.5773503   0.0000000), wk =   0.0123457
        k(   73) = (   0.2222222   0.6415003   0.0000000), wk =   0.0123457
        k(   74) = (   0.2222222  -0.4490502   0.0000000), wk =   0.0123457
        k(   75) = (   0.2222222  -0.3849002   0.0000000), wk =   0.0123457
        k(   76) = (   0.2222222  -0.3207501   0.0000000), wk =   0.0123457
        k(   77) = (   0.2222222  -0.2566001   0.0000000), wk =   0.0123457
        k(   78) = (   0.2222222  -0.1924501   0.0000000), wk =   0.0123457
        k(   79) = (   0.2222222  -0.1283001   0.0000000), wk =   0.0123457
        k(   80) = (   0.2222222  -0.0641500   0.0000000), wk =   0.0123457
        k(   81) = (   0.2222222  -0.0000000   0.0000000), wk =   0.0123457
        k(   82) = (   0.2222222   0.0641500   0.0000000), wk =   0.0123457
        k(   83) = (   0.2777778   0.1603751   0.0000000), wk =   0.0123457
        k(   84) = (   0.2777778   0.2245251   0.0000000), wk =   0.0123457
        k(   85) = (   0.2777778   0.2886751   0.0000000), wk =   0.0123457
        k(   86) = (   0.2777778   0.3528252   0.0000000), wk =   0.0123457
        k(   87) = (   0.2777778   0.4169752   0.0000000), wk =   0.0123457
        k(   88) = (   0.2777778   0.4811252   0.0000000), wk =   0.0123457
        k(   89) = (   0.2777778   0.5452753   0.0000000), wk =   0.0123457
        k(   90) = (   0.2777778   0.6094253   0.0000000), wk =   0.0123457
        k(   91) = (   0.2777778   0.6735753   0.0000000), wk =   0.0123457
        k(   92) = (   0.2777778  -0.4169752   0.0000000), wk =   0.0123457
        k(   93) = (   0.2777778  -0.3528252   0.0000000), wk =   0.0123457
        k(   94) = (   0.2777778  -0.2886751   0.0000000), wk =   0.0123457
        k(   95) = (   0.2777778  -0.2245251   0.0000000), wk =   0.0123457
        k(   96) = (   0.2777778  -0.1603751   0.0000000), wk =   0.0123457
        k(   97) = (   0.2777778  -0.0962250   0.0000000), wk =   0.0123457
        k(   98) = (   0.2777778  -0.0320750   0.0000000), wk =   0.0123457
        k(   99) = (   0.2777778   0.0320750   0.0000000), wk =   0.0123457
        k(  100) = (   0.2777778   0.0962250   0.0000000), wk =   0.0123457
        k(  101) = (   0.3333333   0.1924501   0.0000000), wk =   0.0123457
        k(  102) = (   0.3333333   0.2566001   0.0000000), wk =   0.0123457
        k(  103) = (   0.3333333   0.3207501   0.0000000), wk =   0.0123457
        k(  104) = (   0.3333333   0.3849002   0.0000000), wk =   0.0123457
        k(  105) = (   0.3333333   0.4490502   0.0000000), wk =   0.0123457
        k(  106) = (   0.3333333   0.5132002   0.0000000), wk =   0.0123457
        k(  107) = (   0.3333333   0.5773503   0.0000000), wk =   0.0123457
        k(  108) = (   0.3333333   0.6415003   0.0000000), wk =   0.0123457
        k(  109) = (   0.3333333   0.7056503   0.0000000), wk =   0.0123457
        k(  110) = (   0.3333333  -0.3849002   0.0000000), wk =   0.0123457
        k(  111) = (   0.3333333  -0.3207501   0.0000000), wk =   0.0123457
        k(  112) = (   0.3333333  -0.2566001   0.0000000), wk =   0.0123457
        k(  113) = (   0.3333333  -0.1924501   0.0000000), wk =   0.0123457
        k(  114) = (   0.3333333  -0.1283001   0.0000000), wk =   0.0123457
        k(  115) = (   0.3333333  -0.0641500   0.0000000), wk =   0.0123457
        k(  116) = (   0.3333333   0.0000000   0.0000000), wk =   0.0123457
        k(  117) = (   0.3333333   0.0641500   0.0000000), wk =   0.0123457
        k(  118) = (   0.3333333   0.1283001   0.0000000), wk =   0.0123457
        k(  119) = (   0.3888889   0.2245251   0.0000000), wk =   0.0123457
        k(  120) = (   0.3888889   0.2886751   0.0000000), wk =   0.0123457
        k(  121) = (   0.3888889   0.3528252   0.0000000), wk =   0.0123457
        k(  122) = (   0.3888889   0.4169752   0.0000000), wk =   0.0123457
        k(  123) = (   0.3888889   0.4811252   0.0000000), wk =   0.0123457
        k(  124) = (   0.3888889   0.5452753   0.0000000), wk =   0.0123457
        k(  125) = (   0.3888889   0.6094253   0.0000000), wk =   0.0123457
        k(  126) = (   0.3888889   0.6735753   0.0000000), wk =   0.0123457
        k(  127) = (   0.3888889   0.7377253   0.0000000), wk =   0.0123457
        k(  128) = (   0.3888889  -0.3528252   0.0000000), wk =   0.0123457
        k(  129) = (   0.3888889  -0.2886751   0.0000000), wk =   0.0123457
        k(  130) = (   0.3888889  -0.2245251   0.0000000), wk =   0.0123457
        k(  131) = (   0.3888889  -0.1603751   0.0000000), wk =   0.0123457
        k(  132) = (   0.3888889  -0.0962250   0.0000000), wk =   0.0123457
        k(  133) = (   0.3888889  -0.0320750   0.0000000), wk =   0.0123457
        k(  134) = (   0.3888889   0.0320750   0.0000000), wk =   0.0123457
        k(  135) = (   0.3888889   0.0962250   0.0000000), wk =   0.0123457
        k(  136) = (   0.3888889   0.1603751   0.0000000), wk =   0.0123457
        k(  137) = (   0.4444444   0.2566001   0.0000000), wk =   0.0123457
        k(  138) = (   0.4444444   0.3207501   0.0000000), wk =   0.0123457
        k(  139) = (   0.4444444   0.3849002   0.0000000), wk =   0.0123457
        k(  140) = (   0.4444444   0.4490502   0.0000000), wk =   0.0123457
        k(  141) = (   0.4444444   0.5132002   0.0000000), wk =   0.0123457
        k(  142) = (   0.4444444   0.5773503   0.0000000), wk =   0.0123457
        k(  143) = (   0.4444444   0.6415003   0.0000000), wk =   0.0123457
        k(  144) = (   0.4444444   0.7056503   0.0000000), wk =   0.0123457
        k(  145) = (   0.4444444   0.7698004   0.0000000), wk =   0.0123457
        k(  146) = (   0.4444444  -0.3207501   0.0000000), wk =   0.0123457
        k(  147) = (   0.4444444  -0.2566001   0.0000000), wk =   0.0123457
        k(  148) = (   0.4444444  -0.1924501   0.0000000), wk =   0.0123457
        k(  149) = (   0.4444444  -0.1283001   0.0000000), wk =   0.0123457
        k(  150) = (   0.4444444  -0.0641500   0.0000000), wk =   0.0123457
        k(  151) = (   0.4444444   0.0000000   0.0000000), wk =   0.0123457
        k(  152) = (   0.4444444   0.0641500   0.0000000), wk =   0.0123457
        k(  153) = (   0.4444444   0.1283001   0.0000000), wk =   0.0123457
        k(  154) = (   0.4444444   0.1924501   0.0000000), wk =   0.0123457
        k(  155) = (  -0.5000000  -0.2886751   0.0000000), wk =   0.0061728
        k(  156) = (  -0.5000000  -0.2245251   0.0000000), wk =   0.0123457
        k(  157) = (  -0.5000000  -0.1603751   0.0000000), wk =   0.0123457
        k(  158) = (  -0.5000000  -0.0962250   0.0000000), wk =   0.0123457
        k(  159) = (  -0.5000000  -0.0320750   0.0000000), wk =   0.0123457
        k(  160) = (  -0.5000000   0.0320750   0.0000000), wk =   0.0123457
        k(  161) = (  -0.5000000   0.0962250   0.0000000), wk =   0.0123457
        k(  162) = (  -0.5000000   0.1603751   0.0000000), wk =   0.0123457
        k(  163) = (  -0.5000000   0.2245251   0.0000000), wk =   0.0123457
        k(  164) = (  -0.5000000  -0.8660254   0.0000000), wk =   0.0061728

                       cryst. coord.
        k(    1) = (   0.0000000   0.0000000   0.0000000), wk =   0.0061728
        k(    2) = (   0.0000000   0.0555556   0.0000000), wk =   0.0123457
        k(    3) = (   0.0000000   0.1111111   0.0000000), wk =   0.0123457
        k(    4) = (   0.0000000   0.1666667   0.0000000), wk =   0.0123457
        k(    5) = (   0.0000000   0.2222222   0.0000000), wk =   0.0123457
        k(    6) = (   0.0000000   0.2777778   0.0000000), wk =   0.0123457
        k(    7) = (   0.0000000   0.3333333   0.0000000), wk =   0.0123457
        k(    8) = (   0.0000000   0.3888889   0.0000000), wk =   0.0123457
        k(    9) = (   0.0000000   0.4444444   0.0000000), wk =   0.0123457
        k(   10) = (   0.0000000  -0.5000000   0.0000000), wk =   0.0061728
        k(   11) = (   0.0555556   0.0000000   0.0000000), wk =   0.0123457
        k(   12) = (   0.0555556   0.0555556   0.0000000), wk =   0.0123457
        k(   13) = (   0.0555556   0.1111111   0.0000000), wk =   0.0123457
        k(   14) = (   0.0555556   0.1666667   0.0000000), wk =   0.0123457
        k(   15) = (   0.0555556   0.2222222   0.0000000), wk =   0.0123457
        k(   16) = (   0.0555556   0.2777778   0.0000000), wk =   0.0123457
        k(   17) = (   0.0555556   0.3333333   0.0000000), wk =   0.0123457
        k(   18) = (   0.0555556   0.3888889   0.0000000), wk =   0.0123457
        k(   19) = (   0.0555556   0.4444444   0.0000000), wk =   0.0123457
        k(   20) = (   0.0555556  -0.5000000   0.0000000), wk =   0.0123457
        k(   21) = (   0.0555556  -0.4444444   0.0000000), wk =   0.0123457
        k(   22) = (   0.0555556  -0.3888889   0.0000000), wk =   0.0123457
        k(   23) = (   0.0555556  -0.3333333   0.0000000), wk =   0.0123457
        k(   24) = (   0.0555556  -0.2777778   0.0000000), wk =   0.0123457
        k(   25) = (   0.0555556  -0.2222222   0.0000000), wk =   0.0123457
        k(   26) = (   0.0555556  -0.1666667   0.0000000), wk =   0.0123457
        k(   27) = (   0.0555556  -0.1111111   0.0000000), wk =   0.0123457
        k(   28) = (   0.0555556  -0.0555556   0.0000000), wk =   0.0123457
        k(   29) = (   0.1111111   0.0000000   0.0000000), wk =   0.0123457
        k(   30) = (   0.1111111   0.0555556   0.0000000), wk =   0.0123457
        k(   31) = (   0.1111111   0.1111111   0.0000000), wk =   0.0123457
        k(   32) = (   0.1111111   0.1666667   0.0000000), wk =   0.0123457
        k(   33) = (   0.1111111   0.2222222   0.0000000), wk =   0.0123457
        k(   34) = (   0.1111111   0.2777778   0.0000000), wk =   0.0123457
        k(   35) = (   0.1111111   0.3333333   0.0000000), wk =   0.0123457
        k(   36) = (   0.1111111   0.3888889   0.0000000), wk =   0.0123457
        k(   37) = (   0.1111111   0.4444444   0.0000000), wk =   0.0123457
        k(   38) = (   0.1111111  -0.5000000   0.0000000), wk =   0.0123457
        k(   39) = (   0.1111111  -0.4444444   0.0000000), wk =   0.0123457
        k(   40) = (   0.1111111  -0.3888889   0.0000000), wk =   0.0123457
        k(   41) = (   0.1111111  -0.3333333   0.0000000), wk =   0.0123457
        k(   42) = (   0.1111111  -0.2777778   0.0000000), wk =   0.0123457
        k(   43) = (   0.1111111  -0.2222222   0.0000000), wk =   0.0123457
        k(   44) = (   0.1111111  -0.1666667   0.0000000), wk =   0.0123457
        k(   45) = (   0.1111111  -0.1111111   0.0000000), wk =   0.0123457
        k(   46) = (   0.1111111  -0.0555556   0.0000000), wk =   0.0123457
        k(   47) = (   0.1666667   0.0000000   0.0000000), wk =   0.0123457
        k(   48) = (   0.1666667   0.0555556   0.0000000), wk =   0.0123457
        k(   49) = (   0.1666667   0.1111111   0.0000000), wk =   0.0123457
        k(   50) = (   0.1666667   0.1666667   0.0000000), wk =   0.0123457
        k(   51) = (   0.1666667   0.2222222   0.0000000), wk =   0.0123457
        k(   52) = (   0.1666667   0.2777778   0.0000000), wk =   0.0123457
        k(   53) = (   0.1666667   0.3333333   0.0000000), wk =   0.0123457
        k(   54) = (   0.1666667   0.3888889   0.0000000), wk =   0.0123457
        k(   55) = (   0.1666667   0.4444444   0.0000000), wk =   0.0123457
        k(   56) = (   0.1666667  -0.5000000   0.0000000), wk =   0.0123457
        k(   57) = (   0.1666667  -0.4444444   0.0000000), wk =   0.0123457
        k(   58) = (   0.1666667  -0.3888889   0.0000000), wk =   0.0123457
        k(   59) = (   0.1666667  -0.3333333   0.0000000), wk =   0.0123457
        k(   60) = (   0.1666667  -0.2777778   0.0000000), wk =   0.0123457
        k(   61) = (   0.1666667  -0.2222222   0.0000000), wk =   0.0123457
        k(   62) = (   0.1666667  -0.1666667   0.0000000), wk =   0.0123457
        k(   63) = (   0.1666667  -0.1111111   0.0000000), wk =   0.0123457
        k(   64) = (   0.1666667  -0.0555556   0.0000000), wk =   0.0123457
        k(   65) = (   0.2222222   0.0000000   0.0000000), wk =   0.0123457
        k(   66) = (   0.2222222   0.0555556   0.0000000), wk =   0.0123457
        k(   67) = (   0.2222222   0.1111111   0.0000000), wk =   0.0123457
        k(   68) = (   0.2222222   0.1666667   0.0000000), wk =   0.0123457
        k(   69) = (   0.2222222   0.2222222   0.0000000), wk =   0.0123457
        k(   70) = (   0.2222222   0.2777778   0.0000000), wk =   0.0123457
        k(   71) = (   0.2222222   0.3333333   0.0000000), wk =   0.0123457
        k(   72) = (   0.2222222   0.3888889   0.0000000), wk =   0.0123457
        k(   73) = (   0.2222222   0.4444444   0.0000000), wk =   0.0123457
        k(   74) = (   0.2222222  -0.5000000   0.0000000), wk =   0.0123457
        k(   75) = (   0.2222222  -0.4444444   0.0000000), wk =   0.0123457
        k(   76) = (   0.2222222  -0.3888889   0.0000000), wk =   0.0123457
        k(   77) = (   0.2222222  -0.3333333   0.0000000), wk =   0.0123457
        k(   78) = (   0.2222222  -0.2777778   0.0000000), wk =   0.0123457
        k(   79) = (   0.2222222  -0.2222222   0.0000000), wk =   0.0123457
        k(   80) = (   0.2222222  -0.1666667   0.0000000), wk =   0.0123457
        k(   81) = (   0.2222222  -0.1111111   0.0000000), wk =   0.0123457
        k(   82) = (   0.2222222  -0.0555556   0.0000000), wk =   0.0123457
        k(   83) = (   0.2777778   0.0000000   0.0000000), wk =   0.0123457
        k(   84) = (   0.2777778   0.0555556   0.0000000), wk =   0.0123457
        k(   85) = (   0.2777778   0.1111111   0.0000000), wk =   0.0123457
        k(   86) = (   0.2777778   0.1666667   0.0000000), wk =   0.0123457
        k(   87) = (   0.2777778   0.2222222   0.0000000), wk =   0.0123457
        k(   88) = (   0.2777778   0.2777778   0.0000000), wk =   0.0123457
        k(   89) = (   0.2777778   0.3333333   0.0000000), wk =   0.0123457
        k(   90) = (   0.2777778   0.3888889   0.0000000), wk =   0.0123457
        k(   91) = (   0.2777778   0.4444444   0.0000000), wk =   0.0123457
        k(   92) = (   0.2777778  -0.5000000   0.0000000), wk =   0.0123457
        k(   93) = (   0.2777778  -0.4444444   0.0000000), wk =   0.0123457
        k(   94) = (   0.2777778  -0.3888889   0.0000000), wk =   0.0123457
        k(   95) = (   0.2777778  -0.3333333   0.0000000), wk =   0.0123457
        k(   96) = (   0.2777778  -0.2777778   0.0000000), wk =   0.0123457
        k(   97) = (   0.2777778  -0.2222222   0.0000000), wk =   0.0123457
        k(   98) = (   0.2777778  -0.1666667   0.0000000), wk =   0.0123457
        k(   99) = (   0.2777778  -0.1111111   0.0000000), wk =   0.0123457
        k(  100) = (   0.2777778  -0.0555556   0.0000000), wk =   0.0123457
        k(  101) = (   0.3333333   0.0000000   0.0000000), wk =   0.0123457
        k(  102) = (   0.3333333   0.0555556   0.0000000), wk =   0.0123457
        k(  103) = (   0.3333333   0.1111111   0.0000000), wk =   0.0123457
        k(  104) = (   0.3333333   0.1666667   0.0000000), wk =   0.0123457
        k(  105) = (   0.3333333   0.2222222   0.0000000), wk =   0.0123457
        k(  106) = (   0.3333333   0.2777778   0.0000000), wk =   0.0123457
        k(  107) = (   0.3333333   0.3333333   0.0000000), wk =   0.0123457
        k(  108) = (   0.3333333   0.3888889   0.0000000), wk =   0.0123457
        k(  109) = (   0.3333333   0.4444444   0.0000000), wk =   0.0123457
        k(  110) = (   0.3333333  -0.5000000   0.0000000), wk =   0.0123457
        k(  111) = (   0.3333333  -0.4444444   0.0000000), wk =   0.0123457
        k(  112) = (   0.3333333  -0.3888889   0.0000000), wk =   0.0123457
        k(  113) = (   0.3333333  -0.3333333   0.0000000), wk =   0.0123457
        k(  114) = (   0.3333333  -0.2777778   0.0000000), wk =   0.0123457
        k(  115) = (   0.3333333  -0.2222222   0.0000000), wk =   0.0123457
        k(  116) = (   0.3333333  -0.1666667   0.0000000), wk =   0.0123457
        k(  117) = (   0.3333333  -0.1111111   0.0000000), wk =   0.0123457
        k(  118) = (   0.3333333  -0.0555556   0.0000000), wk =   0.0123457
        k(  119) = (   0.3888889   0.0000000   0.0000000), wk =   0.0123457
        k(  120) = (   0.3888889   0.0555556   0.0000000), wk =   0.0123457
        k(  121) = (   0.3888889   0.1111111   0.0000000), wk =   0.0123457
        k(  122) = (   0.3888889   0.1666667   0.0000000), wk =   0.0123457
        k(  123) = (   0.3888889   0.2222222   0.0000000), wk =   0.0123457
        k(  124) = (   0.3888889   0.2777778   0.0000000), wk =   0.0123457
        k(  125) = (   0.3888889   0.3333333   0.0000000), wk =   0.0123457
        k(  126) = (   0.3888889   0.3888889   0.0000000), wk =   0.0123457
        k(  127) = (   0.3888889   0.4444444   0.0000000), wk =   0.0123457
        k(  128) = (   0.3888889  -0.5000000   0.0000000), wk =   0.0123457
        k(  129) = (   0.3888889  -0.4444444   0.0000000), wk =   0.0123457
        k(  130) = (   0.3888889  -0.3888889   0.0000000), wk =   0.0123457
        k(  131) = (   0.3888889  -0.3333333   0.0000000), wk =   0.0123457
        k(  132) = (   0.3888889  -0.2777778   0.0000000), wk =   0.0123457
        k(  133) = (   0.3888889  -0.2222222   0.0000000), wk =   0.0123457
        k(  134) = (   0.3888889  -0.1666667   0.0000000), wk =   0.0123457
        k(  135) = (   0.3888889  -0.1111111   0.0000000), wk =   0.0123457
        k(  136) = (   0.3888889  -0.0555556   0.0000000), wk =   0.0123457
        k(  137) = (   0.4444444   0.0000000   0.0000000), wk =   0.0123457
        k(  138) = (   0.4444444   0.0555556   0.0000000), wk =   0.0123457
        k(  139) = (   0.4444444   0.1111111   0.0000000), wk =   0.0123457
        k(  140) = (   0.4444444   0.1666667   0.0000000), wk =   0.0123457
        k(  141) = (   0.4444444   0.2222222   0.0000000), wk =   0.0123457
        k(  142) = (   0.4444444   0.2777778   0.0000000), wk =   0.0123457
        k(  143) = (   0.4444444   0.3333333   0.0000000), wk =   0.0123457
        k(  144) = (   0.4444444   0.3888889   0.0000000), wk =   0.0123457
        k(  145) = (   0.4444444   0.4444444   0.0000000), wk =   0.0123457
        k(  146) = (   0.4444444  -0.5000000   0.0000000), wk =   0.0123457
        k(  147) = (   0.4444444  -0.4444444   0.0000000), wk =   0.0123457
        k(  148) = (   0.4444444  -0.3888889   0.0000000), wk =   0.0123457
        k(  149) = (   0.4444444  -0.3333333   0.0000000), wk =   0.0123457
        k(  150) = (   0.4444444  -0.2777778   0.0000000), wk =   0.0123457
        k(  151) = (   0.4444444  -0.2222222   0.0000000), wk =   0.0123457
        k(  152) = (   0.4444444  -0.1666667   0.0000000), wk =   0.0123457
        k(  153) = (   0.4444444  -0.1111111   0.0000000), wk =   0.0123457
        k(  154) = (   0.4444444  -0.0555556   0.0000000), wk =   0.0123457
        k(  155) = (  -0.5000000   0.0000000   0.0000000), wk =   0.0061728
        k(  156) = (  -0.5000000   0.0555556   0.0000000), wk =   0.0123457
        k(  157) = (  -0.5000000   0.1111111   0.0000000), wk =   0.0123457
        k(  158) = (  -0.5000000   0.1666667   0.0000000), wk =   0.0123457
        k(  159) = (  -0.5000000   0.2222222   0.0000000), wk =   0.0123457
        k(  160) = (  -0.5000000   0.2777778   0.0000000), wk =   0.0123457
        k(  161) = (  -0.5000000   0.3333333   0.0000000), wk =   0.0123457
        k(  162) = (  -0.5000000   0.3888889   0.0000000), wk =   0.0123457
        k(  163) = (  -0.5000000   0.4444444   0.0000000), wk =   0.0123457
        k(  164) = (  -0.5000000  -0.5000000   0.0000000), wk =   0.0061728

     Dense  grid:   653869 G-vectors     FFT dimensions: (  60,  60, 405)

     Smooth grid:   118307 G-vectors     FFT dimensions: (  36,  36, 240)

     Dynamical RAM for                 wfc:       0.37 MB

     Dynamical RAM for     wfc (w. buffer):       8.07 MB

     Dynamical RAM for           str. fact:       2.49 MB

     Dynamical RAM for           local pot:       0.00 MB

     Dynamical RAM for          nlocal pot:       1.52 MB

     Dynamical RAM for                qrad:       5.07 MB

     Dynamical RAM for          rho,v,vnew:       7.94 MB

     Dynamical RAM for               rhoin:       2.65 MB

     Dynamical RAM for            rho*nmix:      19.96 MB

     Dynamical RAM for           G-vectors:       4.79 MB

     Dynamical RAM for          h,s,v(r/c):       0.03 MB

     Dynamical RAM for          <psi|beta>:       0.01 MB

     Dynamical RAM for                 psi:       0.73 MB

     Dynamical RAM for                hpsi:       0.73 MB

     Dynamical RAM for      wfcinit/wfcrot:       0.74 MB

     Estimated static dynamical RAM per process >      43.29 MB

     Estimated max dynamical RAM per process >      64.76 MB

     Estimated total dynamical RAM >       2.96 GB
 ----2D----2D----2D----2D----2D----2D----2D----2D----2D----2D----2D----2D
  The code is running with the 2D cutoff
  Please refer to:
  Sohier, T., Calandra, M., & Mauri, F. (2017), 
  Density functional perturbation theory for gated two-dimensional heterostructures:
  Theoretical developments and application to flexural phonons in graphene.
  Physical Review B, 96(7), 75448. https://doi.org/10.1103/PhysRevB.96.075448
 ----2D----2D----2D----2D----2D----2D----2D----2D----2D----2D----2D----2D
     Cannot read rho : file not found

     Initial potential from superposition of free atoms

     starting charge      25.9986, renormalised to      26.0000

     negative rho (up, down):  3.641E-07 0.000E+00
     Starting wfcs are   18 randomized atomic wfcs

     total cpu time spent up to now is       19.2 secs

     per-process dynamical memory:    98.8 Mb

     Self-consistent Calculation

     iteration #  1     ecut=    80.00 Ry     beta= 0.20
     Davidson diagonalization with overlap

---- Real-time Memory Report at c_bands before calling an iterative solver
           112 MiB given to the printing process from OS
            96 MiB allocation reported by mallinfo(arena+hblkhd)
        235830 MiB available memory on the node where the printing process lives
------------------
     ethr =  1.00E-05,  avg # of iterations = 11.6

     negative rho (up, down):  1.026E-07 0.000E+00

     total cpu time spent up to now is       26.1 secs

     total energy              =    -184.80449809 Ry
     estimated scf accuracy    <       0.42494467 Ry

     iteration #  2     ecut=    80.00 Ry     beta= 0.20
     Davidson diagonalization with overlap

---- Real-time Memory Report at c_bands before calling an iterative solver
           135 MiB given to the printing process from OS
           106 MiB allocation reported by mallinfo(arena+hblkhd)
        235016 MiB available memory on the node where the printing process lives
------------------
     ethr =  1.63E-03,  avg # of iterations =  2.0

     negative rho (up, down):  2.618E-07 0.000E+00

     total cpu time spent up to now is       27.5 secs

     total energy              =    -184.82567268 Ry
     estimated scf accuracy    <       0.07894287 Ry

     iteration #  3     ecut=    80.00 Ry     beta= 0.20
     Davidson diagonalization with overlap

---- Real-time Memory Report at c_bands before calling an iterative solver
           135 MiB given to the printing process from OS
           107 MiB allocation reported by mallinfo(arena+hblkhd)
        234967 MiB available memory on the node where the printing process lives
------------------
     ethr =  3.04E-04,  avg # of iterations =  2.4

     negative rho (up, down):  2.241E-06 0.000E+00

     total cpu time spent up to now is       28.9 secs

     total energy              =    -184.82418591 Ry
     estimated scf accuracy    <       0.02368215 Ry

     iteration #  4     ecut=    80.00 Ry     beta= 0.20
     Davidson diagonalization with overlap

---- Real-time Memory Report at c_bands before calling an iterative solver
           135 MiB given to the printing process from OS
           108 MiB allocation reported by mallinfo(arena+hblkhd)
        234967 MiB available memory on the node where the printing process lives
------------------
     ethr =  9.11E-05,  avg # of iterations =  4.1

     negative rho (up, down):  1.986E-06 0.000E+00

     total cpu time spent up to now is       30.5 secs

     total energy              =    -184.83085268 Ry
     estimated scf accuracy    <       0.00488991 Ry

     iteration #  5     ecut=    80.00 Ry     beta= 0.20
     Davidson diagonalization with overlap

---- Real-time Memory Report at c_bands before calling an iterative solver
           136 MiB given to the printing process from OS
           108 MiB allocation reported by mallinfo(arena+hblkhd)
        234971 MiB available memory on the node where the printing process lives
------------------
     ethr =  1.88E-05,  avg # of iterations =  3.5

     negative rho (up, down):  4.796E-06 0.000E+00

     total cpu time spent up to now is       32.2 secs

     total energy              =    -184.83196228 Ry
     estimated scf accuracy    <       0.00167349 Ry

     iteration #  6     ecut=    80.00 Ry     beta= 0.20
     Davidson diagonalization with overlap

---- Real-time Memory Report at c_bands before calling an iterative solver
           138 MiB given to the printing process from OS
           109 MiB allocation reported by mallinfo(arena+hblkhd)
        234972 MiB available memory on the node where the printing process lives
------------------
     ethr =  6.44E-06,  avg # of iterations =  4.4

     negative rho (up, down):  3.509E-06 0.000E+00

     total cpu time spent up to now is       33.9 secs

     total energy              =    -184.83108310 Ry
     estimated scf accuracy    <       0.00395818 Ry

     iteration #  7     ecut=    80.00 Ry     beta= 0.20
     Davidson diagonalization with overlap

---- Real-time Memory Report at c_bands before calling an iterative solver
           139 MiB given to the printing process from OS
           109 MiB allocation reported by mallinfo(arena+hblkhd)
        234958 MiB available memory on the node where the printing process lives
------------------
     ethr =  6.44E-06,  avg # of iterations =  4.3

     negative rho (up, down):  2.633E-06 0.000E+00

     total cpu time spent up to now is       35.5 secs

     total energy              =    -184.83177777 Ry
     estimated scf accuracy    <       0.00001244 Ry

     iteration #  8     ecut=    80.00 Ry     beta= 0.20
     Davidson diagonalization with overlap

---- Real-time Memory Report at c_bands before calling an iterative solver
           139 MiB given to the printing process from OS
           109 MiB allocation reported by mallinfo(arena+hblkhd)
        234942 MiB available memory on the node where the printing process lives
------------------
     ethr =  4.78E-08,  avg # of iterations = 10.8

     negative rho (up, down):  2.797E-06 0.000E+00

     total cpu time spent up to now is       39.0 secs

     total energy              =    -184.83171209 Ry
     estimated scf accuracy    <       0.00069232 Ry

     iteration #  9     ecut=    80.00 Ry     beta= 0.20
     Davidson diagonalization with overlap

---- Real-time Memory Report at c_bands before calling an iterative solver
           139 MiB given to the printing process from OS
           110 MiB allocation reported by mallinfo(arena+hblkhd)
        234945 MiB available memory on the node where the printing process lives
------------------
     ethr =  4.78E-08,  avg # of iterations =  7.9

     negative rho (up, down):  2.316E-06 0.000E+00

     total cpu time spent up to now is       41.5 secs

     total energy              =    -184.83180306 Ry
     estimated scf accuracy    <       0.00000434 Ry

     iteration # 10     ecut=    80.00 Ry     beta= 0.20
     Davidson diagonalization with overlap

---- Real-time Memory Report at c_bands before calling an iterative solver
           139 MiB given to the printing process from OS
           110 MiB allocation reported by mallinfo(arena+hblkhd)
        234952 MiB available memory on the node where the printing process lives
------------------
     ethr =  1.67E-08,  avg # of iterations =  4.3

     negative rho (up, down):  1.716E-06 0.000E+00

     total cpu time spent up to now is       43.1 secs

     total energy              =    -184.83180643 Ry
     estimated scf accuracy    <       0.00000671 Ry

     iteration # 11     ecut=    80.00 Ry     beta= 0.20
     Davidson diagonalization with overlap

---- Real-time Memory Report at c_bands before calling an iterative solver
           139 MiB given to the printing process from OS
           110 MiB allocation reported by mallinfo(arena+hblkhd)
        234953 MiB available memory on the node where the printing process lives
------------------
     ethr =  1.67E-08,  avg # of iterations =  4.6

     negative rho (up, down):  1.695E-06 0.000E+00

     total cpu time spent up to now is       44.8 secs

     total energy              =    -184.83180485 Ry
     estimated scf accuracy    <       0.00002971 Ry

     iteration # 12     ecut=    80.00 Ry     beta= 0.20
     Davidson diagonalization with overlap

---- Real-time Memory Report at c_bands before calling an iterative solver
           139 MiB given to the printing process from OS
           110 MiB allocation reported by mallinfo(arena+hblkhd)
        234955 MiB available memory on the node where the printing process lives
------------------
     ethr =  1.67E-08,  avg # of iterations =  1.4

     negative rho (up, down):  1.370E-06 0.000E+00

     total cpu time spent up to now is       46.1 secs

     total energy              =    -184.83180231 Ry
     estimated scf accuracy    <       0.00002127 Ry

     iteration # 13     ecut=    80.00 Ry     beta= 0.20
     Davidson diagonalization with overlap

---- Real-time Memory Report at c_bands before calling an iterative solver
           139 MiB given to the printing process from OS
           110 MiB allocation reported by mallinfo(arena+hblkhd)
        234955 MiB available memory on the node where the printing process lives
------------------
     ethr =  1.67E-08,  avg # of iterations =  4.3

     negative rho (up, down):  1.061E-06 0.000E+00

     total cpu time spent up to now is       47.7 secs

     total energy              =    -184.83180328 Ry
     estimated scf accuracy    <       0.00000565 Ry

     iteration # 14     ecut=    80.00 Ry     beta= 0.20
     Davidson diagonalization with overlap

---- Real-time Memory Report at c_bands before calling an iterative solver
           139 MiB given to the printing process from OS
           110 MiB allocation reported by mallinfo(arena+hblkhd)
        234956 MiB available memory on the node where the printing process lives
------------------
     ethr =  1.67E-08,  avg # of iterations =  1.0

     negative rho (up, down):  8.360E-07 0.000E+00

     total cpu time spent up to now is       48.8 secs

     total energy              =    -184.83180252 Ry
     estimated scf accuracy    <       0.00000517 Ry

     iteration # 15     ecut=    80.00 Ry     beta= 0.20
     Davidson diagonalization with overlap

---- Real-time Memory Report at c_bands before calling an iterative solver
           139 MiB given to the printing process from OS
           110 MiB allocation reported by mallinfo(arena+hblkhd)
        234954 MiB available memory on the node where the printing process lives
------------------
     ethr =  1.67E-08,  avg # of iterations =  1.6

     negative rho (up, down):  6.617E-07 0.000E+00

     total cpu time spent up to now is       50.1 secs

     total energy              =    -184.83180244 Ry
     estimated scf accuracy    <       0.00000195 Ry

     iteration # 16     ecut=    80.00 Ry     beta= 0.20
     Davidson diagonalization with overlap

---- Real-time Memory Report at c_bands before calling an iterative solver
           139 MiB given to the printing process from OS
           110 MiB allocation reported by mallinfo(arena+hblkhd)
        234955 MiB available memory on the node where the printing process lives
------------------
     ethr =  7.51E-09,  avg # of iterations =  4.3

     negative rho (up, down):  5.284E-07 0.000E+00

     total cpu time spent up to now is       51.6 secs

     total energy              =    -184.83180283 Ry
     estimated scf accuracy    <       0.00000010 Ry

     iteration # 17     ecut=    80.00 Ry     beta= 0.20
     Davidson diagonalization with overlap

---- Real-time Memory Report at c_bands before calling an iterative solver
           139 MiB given to the printing process from OS
           110 MiB allocation reported by mallinfo(arena+hblkhd)
        234956 MiB available memory on the node where the printing process lives
------------------
     ethr =  3.77E-10,  avg # of iterations =  4.9

     negative rho (up, down):  4.255E-07 0.000E+00

     total cpu time spent up to now is       53.4 secs

     total energy              =    -184.83180291 Ry
     estimated scf accuracy    <          7.0E-09 Ry

     iteration # 18     ecut=    80.00 Ry     beta= 0.20
     Davidson diagonalization with overlap

---- Real-time Memory Report at c_bands before calling an iterative solver
           139 MiB given to the printing process from OS
           110 MiB allocation reported by mallinfo(arena+hblkhd)
        234956 MiB available memory on the node where the printing process lives
------------------
     ethr =  2.70E-11,  avg # of iterations =  7.6

     negative rho (up, down):  3.399E-07 0.000E+00

     total cpu time spent up to now is       55.7 secs

     total energy              =    -184.83180293 Ry
     estimated scf accuracy    <       0.00000024 Ry

     iteration # 19     ecut=    80.00 Ry     beta= 0.20
     Davidson diagonalization with overlap

---- Real-time Memory Report at c_bands before calling an iterative solver
           139 MiB given to the printing process from OS
           110 MiB allocation reported by mallinfo(arena+hblkhd)
        234935 MiB available memory on the node where the printing process lives
------------------
     ethr =  2.70E-11,  avg # of iterations =  1.0

     negative rho (up, down):  2.733E-07 0.000E+00

     total cpu time spent up to now is       56.9 secs

     total energy              =    -184.83180289 Ry
     estimated scf accuracy    <       0.00000025 Ry

     iteration # 20     ecut=    80.00 Ry     beta= 0.20
     Davidson diagonalization with overlap

---- Real-time Memory Report at c_bands before calling an iterative solver
           140 MiB given to the printing process from OS
           110 MiB allocation reported by mallinfo(arena+hblkhd)
        234956 MiB available memory on the node where the printing process lives
------------------
     ethr =  2.70E-11,  avg # of iterations =  6.0

     negative rho (up, down):  2.128E-07 0.000E+00

     total cpu time spent up to now is       59.0 secs

     total energy              =    -184.83180289 Ry
     estimated scf accuracy    <       0.00000004 Ry

     iteration # 21     ecut=    80.00 Ry     beta= 0.20
     Davidson diagonalization with overlap

---- Real-time Memory Report at c_bands before calling an iterative solver
           140 MiB given to the printing process from OS
           110 MiB allocation reported by mallinfo(arena+hblkhd)
        234956 MiB available memory on the node where the printing process lives
------------------
     ethr =  2.70E-11,  avg # of iterations =  5.8

     negative rho (up, down):  1.554E-07 0.000E+00

     total cpu time spent up to now is       60.9 secs

     total energy              =    -184.83180290 Ry
     estimated scf accuracy    <          1.6E-09 Ry

     iteration # 22     ecut=    80.00 Ry     beta= 0.20
     Davidson diagonalization with overlap

---- Real-time Memory Report at c_bands before calling an iterative solver
           140 MiB given to the printing process from OS
           110 MiB allocation reported by mallinfo(arena+hblkhd)
        234956 MiB available memory on the node where the printing process lives
------------------
     ethr =  5.98E-12,  avg # of iterations =  2.1

     negative rho (up, down):  1.150E-07 0.000E+00

     total cpu time spent up to now is       62.2 secs

     total energy              =    -184.83180290 Ry
     estimated scf accuracy    <          1.0E-09 Ry

     iteration # 23     ecut=    80.00 Ry     beta= 0.20
     Davidson diagonalization with overlap

---- Real-time Memory Report at c_bands before calling an iterative solver
           140 MiB given to the printing process from OS
           110 MiB allocation reported by mallinfo(arena+hblkhd)
        234956 MiB available memory on the node where the printing process lives
------------------
     ethr =  4.03E-12,  avg # of iterations =  4.1

     negative rho (up, down):  8.873E-08 0.000E+00

     total cpu time spent up to now is       63.8 secs

     total energy              =    -184.83180290 Ry
     estimated scf accuracy    <          1.3E-10 Ry

     iteration # 24     ecut=    80.00 Ry     beta= 0.20
     Davidson diagonalization with overlap

---- Real-time Memory Report at c_bands before calling an iterative solver
           140 MiB given to the printing process from OS
           110 MiB allocation reported by mallinfo(arena+hblkhd)
        234956 MiB available memory on the node where the printing process lives
------------------
     ethr =  4.83E-13,  avg # of iterations =  5.0

     negative rho (up, down):  6.805E-08 0.000E+00

     total cpu time spent up to now is       65.7 secs

     total energy              =    -184.83180290 Ry
     estimated scf accuracy    <          7.7E-10 Ry

     iteration # 25     ecut=    80.00 Ry     beta= 0.20
     Davidson diagonalization with overlap

---- Real-time Memory Report at c_bands before calling an iterative solver
           140 MiB given to the printing process from OS
           110 MiB allocation reported by mallinfo(arena+hblkhd)
        234954 MiB available memory on the node where the printing process lives
------------------
     ethr =  4.83E-13,  avg # of iterations =  1.8

     negative rho (up, down):  5.398E-08 0.000E+00

     total cpu time spent up to now is       66.9 secs

     total energy              =    -184.83180290 Ry
     estimated scf accuracy    <          8.8E-10 Ry

     iteration # 26     ecut=    80.00 Ry     beta= 0.20
     Davidson diagonalization with overlap

---- Real-time Memory Report at c_bands before calling an iterative solver
           140 MiB given to the printing process from OS
           110 MiB allocation reported by mallinfo(arena+hblkhd)
        234954 MiB available memory on the node where the printing process lives
------------------
     ethr =  4.83E-13,  avg # of iterations =  4.3

     negative rho (up, down):  4.152E-08 0.000E+00

     total cpu time spent up to now is       68.6 secs

     total energy              =    -184.83180290 Ry
     estimated scf accuracy    <          1.8E-10 Ry

     iteration # 27     ecut=    80.00 Ry     beta= 0.20
     Davidson diagonalization with overlap

---- Real-time Memory Report at c_bands before calling an iterative solver
           140 MiB given to the printing process from OS
           110 MiB allocation reported by mallinfo(arena+hblkhd)
        234954 MiB available memory on the node where the printing process lives
------------------
     ethr =  4.83E-13,  avg # of iterations =  1.0

     negative rho (up, down):  3.206E-08 0.000E+00

     total cpu time spent up to now is       69.7 secs

     total energy              =    -184.83180290 Ry
     estimated scf accuracy    <          1.7E-10 Ry

     iteration # 28     ecut=    80.00 Ry     beta= 0.20
     Davidson diagonalization with overlap

---- Real-time Memory Report at c_bands before calling an iterative solver
           140 MiB given to the printing process from OS
           110 MiB allocation reported by mallinfo(arena+hblkhd)
        234953 MiB available memory on the node where the printing process lives
------------------
     ethr =  4.83E-13,  avg # of iterations =  4.9

     negative rho (up, down):  2.448E-08 0.000E+00

     total cpu time spent up to now is       71.4 secs

     total energy              =    -184.83180290 Ry
     estimated scf accuracy    <          9.6E-11 Ry

     iteration # 29     ecut=    80.00 Ry     beta= 0.20
     Davidson diagonalization with overlap

---- Real-time Memory Report at c_bands before calling an iterative solver
           140 MiB given to the printing process from OS
           110 MiB allocation reported by mallinfo(arena+hblkhd)
        234954 MiB available memory on the node where the printing process lives
------------------
     ethr =  3.68E-13,  avg # of iterations =  1.2

     negative rho (up, down):  1.801E-08 0.000E+00

     total cpu time spent up to now is       72.6 secs

     total energy              =    -184.83180290 Ry
     estimated scf accuracy    <          1.4E-10 Ry

     iteration # 30     ecut=    80.00 Ry     beta= 0.20
     Davidson diagonalization with overlap

---- Real-time Memory Report at c_bands before calling an iterative solver
           140 MiB given to the printing process from OS
           110 MiB allocation reported by mallinfo(arena+hblkhd)
        234953 MiB available memory on the node where the printing process lives
------------------
     ethr =  3.68E-13,  avg # of iterations =  5.6

     negative rho (up, down):  1.375E-08 0.000E+00

     total cpu time spent up to now is       74.5 secs

     total energy              =    -184.83180290 Ry
     estimated scf accuracy    <          1.9E-10 Ry

     iteration # 31     ecut=    80.00 Ry     beta= 0.20
     Davidson diagonalization with overlap

---- Real-time Memory Report at c_bands before calling an iterative solver
           140 MiB given to the printing process from OS
           110 MiB allocation reported by mallinfo(arena+hblkhd)
        234947 MiB available memory on the node where the printing process lives
------------------
     ethr =  3.68E-13,  avg # of iterations =  5.6

     negative rho (up, down):  1.018E-08 0.000E+00

     total cpu time spent up to now is       76.4 secs

     total energy              =    -184.83180290 Ry
     estimated scf accuracy    <          7.1E-11 Ry

     iteration # 32     ecut=    80.00 Ry     beta= 0.20
     Davidson diagonalization with overlap

---- Real-time Memory Report at c_bands before calling an iterative solver
           140 MiB given to the printing process from OS
           110 MiB allocation reported by mallinfo(arena+hblkhd)
        234948 MiB available memory on the node where the printing process lives
------------------
     ethr =  2.73E-13,  avg # of iterations =  1.5

     total cpu time spent up to now is       77.6 secs

     total energy              =    -184.83180290 Ry
     estimated scf accuracy    <          4.0E-11 Ry

     iteration # 33     ecut=    80.00 Ry     beta= 0.20
     Davidson diagonalization with overlap

---- Real-time Memory Report at c_bands before calling an iterative solver
           140 MiB given to the printing process from OS
           110 MiB allocation reported by mallinfo(arena+hblkhd)
        234947 MiB available memory on the node where the printing process lives
------------------
     ethr =  1.53E-13,  avg # of iterations =  3.1

     total cpu time spent up to now is       78.9 secs

     total energy              =    -184.83180290 Ry
     estimated scf accuracy    <          7.6E-12 Ry

     iteration # 34     ecut=    80.00 Ry     beta= 0.20
     Davidson diagonalization with overlap

---- Real-time Memory Report at c_bands before calling an iterative solver
           140 MiB given to the printing process from OS
           110 MiB allocation reported by mallinfo(arena+hblkhd)
        234948 MiB available memory on the node where the printing process lives
------------------
     ethr =  1.00E-13,  avg # of iterations =  1.0

     total cpu time spent up to now is       80.1 secs

     total energy              =    -184.83180290 Ry
     estimated scf accuracy    <          6.5E-12 Ry

     iteration # 35     ecut=    80.00 Ry     beta= 0.20
     Davidson diagonalization with overlap

---- Real-time Memory Report at c_bands before calling an iterative solver
           140 MiB given to the printing process from OS
           110 MiB allocation reported by mallinfo(arena+hblkhd)
        234947 MiB available memory on the node where the printing process lives
------------------
     ethr =  1.00E-13,  avg # of iterations =  1.0

     total cpu time spent up to now is       81.3 secs

     total energy              =    -184.83180290 Ry
     estimated scf accuracy    <          2.9E-12 Ry

     iteration # 36     ecut=    80.00 Ry     beta= 0.20
     Davidson diagonalization with overlap

---- Real-time Memory Report at c_bands before calling an iterative solver
           140 MiB given to the printing process from OS
           110 MiB allocation reported by mallinfo(arena+hblkhd)
        234948 MiB available memory on the node where the printing process lives
------------------
     ethr =  1.00E-13,  avg # of iterations =  1.1

     total cpu time spent up to now is       82.4 secs

     total energy              =    -184.83180290 Ry
     estimated scf accuracy    <          7.5E-13 Ry

     iteration # 37     ecut=    80.00 Ry     beta= 0.20
     Davidson diagonalization with overlap

---- Real-time Memory Report at c_bands before calling an iterative solver
           140 MiB given to the printing process from OS
           110 MiB allocation reported by mallinfo(arena+hblkhd)
        234948 MiB available memory on the node where the printing process lives
------------------
     ethr =  1.00E-13,  avg # of iterations =  1.0

     total cpu time spent up to now is       83.6 secs

     total energy              =    -184.83180290 Ry
     estimated scf accuracy    <          2.8E-13 Ry

     iteration # 38     ecut=    80.00 Ry     beta= 0.20
     Davidson diagonalization with overlap

---- Real-time Memory Report at c_bands before calling an iterative solver
           140 MiB given to the printing process from OS
           110 MiB allocation reported by mallinfo(arena+hblkhd)
        234950 MiB available memory on the node where the printing process lives
------------------
     ethr =  1.00E-13,  avg # of iterations =  1.0

     total cpu time spent up to now is       84.8 secs

     total energy              =    -184.83180290 Ry
     estimated scf accuracy    <          2.6E-13 Ry

     iteration # 39     ecut=    80.00 Ry     beta= 0.20
     Davidson diagonalization with overlap

---- Real-time Memory Report at c_bands before calling an iterative solver
           140 MiB given to the printing process from OS
           110 MiB allocation reported by mallinfo(arena+hblkhd)
        234950 MiB available memory on the node where the printing process lives
------------------
     ethr =  1.00E-13,  avg # of iterations =  1.0

     total cpu time spent up to now is       85.9 secs

     total energy              =    -184.83180290 Ry
     estimated scf accuracy    <          3.8E-13 Ry

     iteration # 40     ecut=    80.00 Ry     beta= 0.20
     Davidson diagonalization with overlap

---- Real-time Memory Report at c_bands before calling an iterative solver
           140 MiB given to the printing process from OS
           110 MiB allocation reported by mallinfo(arena+hblkhd)
        234952 MiB available memory on the node where the printing process lives
------------------
     ethr =  1.00E-13,  avg # of iterations =  1.0

     total cpu time spent up to now is       87.1 secs

     total energy              =    -184.83180290 Ry
     estimated scf accuracy    <          4.1E-13 Ry

     iteration # 41     ecut=    80.00 Ry     beta= 0.20
     Davidson diagonalization with overlap

---- Real-time Memory Report at c_bands before calling an iterative solver
           140 MiB given to the printing process from OS
           110 MiB allocation reported by mallinfo(arena+hblkhd)
        234952 MiB available memory on the node where the printing process lives
------------------
     ethr =  1.00E-13,  avg # of iterations =  1.0

     total cpu time spent up to now is       88.2 secs

     total energy              =    -184.83180290 Ry
     estimated scf accuracy    <          2.2E-12 Ry

     iteration # 42     ecut=    80.00 Ry     beta= 0.20
     Davidson diagonalization with overlap

---- Real-time Memory Report at c_bands before calling an iterative solver
           140 MiB given to the printing process from OS
           110 MiB allocation reported by mallinfo(arena+hblkhd)
        234952 MiB available memory on the node where the printing process lives
------------------
     ethr =  1.00E-13,  avg # of iterations =  1.0

     total cpu time spent up to now is       89.4 secs

     total energy              =    -184.83180290 Ry
     estimated scf accuracy    <          1.1E-12 Ry

     iteration # 43     ecut=    80.00 Ry     beta= 0.20
     Davidson diagonalization with overlap

---- Real-time Memory Report at c_bands before calling an iterative solver
           140 MiB given to the printing process from OS
           110 MiB allocation reported by mallinfo(arena+hblkhd)
        234952 MiB available memory on the node where the printing process lives
------------------
     ethr =  1.00E-13,  avg # of iterations =  1.0

     total cpu time spent up to now is       90.5 secs

     total energy              =    -184.83180290 Ry
     estimated scf accuracy    <          6.6E-13 Ry

     iteration # 44     ecut=    80.00 Ry     beta= 0.20
     Davidson diagonalization with overlap

---- Real-time Memory Report at c_bands before calling an iterative solver
           140 MiB given to the printing process from OS
           110 MiB allocation reported by mallinfo(arena+hblkhd)
        234924 MiB available memory on the node where the printing process lives
------------------
     ethr =  1.00E-13,  avg # of iterations =  1.0

     total cpu time spent up to now is       91.7 secs

     total energy              =    -184.83180290 Ry
     estimated scf accuracy    <          5.4E-13 Ry

     iteration # 45     ecut=    80.00 Ry     beta= 0.20
     Davidson diagonalization with overlap

---- Real-time Memory Report at c_bands before calling an iterative solver
           140 MiB given to the printing process from OS
           110 MiB allocation reported by mallinfo(arena+hblkhd)
        234947 MiB available memory on the node where the printing process lives
------------------
     ethr =  1.00E-13,  avg # of iterations =  1.0

     total cpu time spent up to now is       92.9 secs

     total energy              =    -184.83180290 Ry
     estimated scf accuracy    <          2.6E-13 Ry

     iteration # 46     ecut=    80.00 Ry     beta= 0.20
     Davidson diagonalization with overlap

---- Real-time Memory Report at c_bands before calling an iterative solver
           140 MiB given to the printing process from OS
           110 MiB allocation reported by mallinfo(arena+hblkhd)
        234948 MiB available memory on the node where the printing process lives
------------------
     ethr =  1.00E-13,  avg # of iterations =  1.0

     total cpu time spent up to now is       94.0 secs

     total energy              =    -184.83180290 Ry
     estimated scf accuracy    <          8.7E-14 Ry

     iteration # 47     ecut=    80.00 Ry     beta= 0.20
     Davidson diagonalization with overlap

---- Real-time Memory Report at c_bands before calling an iterative solver
           140 MiB given to the printing process from OS
           110 MiB allocation reported by mallinfo(arena+hblkhd)
        234947 MiB available memory on the node where the printing process lives
------------------
     ethr =  1.00E-13,  avg # of iterations =  1.0

     total cpu time spent up to now is       95.2 secs

     total energy              =    -184.83180290 Ry
     estimated scf accuracy    <          8.7E-15 Ry

     iteration # 48     ecut=    80.00 Ry     beta= 0.20
     Davidson diagonalization with overlap

---- Real-time Memory Report at c_bands before calling an iterative solver
           140 MiB given to the printing process from OS
           110 MiB allocation reported by mallinfo(arena+hblkhd)
        234948 MiB available memory on the node where the printing process lives
------------------
     ethr =  1.00E-13,  avg # of iterations =  1.0

     total cpu time spent up to now is       96.3 secs

     total energy              =    -184.83180290 Ry
     estimated scf accuracy    <          2.9E-14 Ry

     iteration # 49     ecut=    80.00 Ry     beta= 0.20
     Davidson diagonalization with overlap

---- Real-time Memory Report at c_bands before calling an iterative solver
           140 MiB given to the printing process from OS
           110 MiB allocation reported by mallinfo(arena+hblkhd)
        234950 MiB available memory on the node where the printing process lives
------------------
     ethr =  1.00E-13,  avg # of iterations =  1.0

     total cpu time spent up to now is       97.5 secs

     total energy              =    -184.83180290 Ry
     estimated scf accuracy    <          2.1E-14 Ry

     iteration # 50     ecut=    80.00 Ry     beta= 0.20
     Davidson diagonalization with overlap

---- Real-time Memory Report at c_bands before calling an iterative solver
           140 MiB given to the printing process from OS
           110 MiB allocation reported by mallinfo(arena+hblkhd)
        234951 MiB available memory on the node where the printing process lives
------------------
     ethr =  1.00E-13,  avg # of iterations =  1.0

     total cpu time spent up to now is       98.6 secs

     total energy              =    -184.83180290 Ry
     estimated scf accuracy    <          6.1E-15 Ry

     iteration # 51     ecut=    80.00 Ry     beta= 0.20
     Davidson diagonalization with overlap

---- Real-time Memory Report at c_bands before calling an iterative solver
           140 MiB given to the printing process from OS
           110 MiB allocation reported by mallinfo(arena+hblkhd)
        234950 MiB available memory on the node where the printing process lives
------------------
     ethr =  1.00E-13,  avg # of iterations =  1.0

     total cpu time spent up to now is       99.8 secs

     total energy              =    -184.83180290 Ry
     estimated scf accuracy    <          1.4E-15 Ry

     iteration # 52     ecut=    80.00 Ry     beta= 0.20
     Davidson diagonalization with overlap

---- Real-time Memory Report at c_bands before calling an iterative solver
           140 MiB given to the printing process from OS
           110 MiB allocation reported by mallinfo(arena+hblkhd)
        234952 MiB available memory on the node where the printing process lives
------------------
     ethr =  1.00E-13,  avg # of iterations =  1.0

     total cpu time spent up to now is      100.9 secs

     total energy              =    -184.83180290 Ry
     estimated scf accuracy    <          2.8E-16 Ry

     iteration # 53     ecut=    80.00 Ry     beta= 0.20
     Davidson diagonalization with overlap

---- Real-time Memory Report at c_bands before calling an iterative solver
           140 MiB given to the printing process from OS
           110 MiB allocation reported by mallinfo(arena+hblkhd)
        234952 MiB available memory on the node where the printing process lives
------------------
     ethr =  1.00E-13,  avg # of iterations =  1.0

     total cpu time spent up to now is      102.1 secs

     total energy              =    -184.83180290 Ry
     estimated scf accuracy    <          1.1E-15 Ry

     iteration # 54     ecut=    80.00 Ry     beta= 0.20
     Davidson diagonalization with overlap

---- Real-time Memory Report at c_bands before calling an iterative solver
           140 MiB given to the printing process from OS
           110 MiB allocation reported by mallinfo(arena+hblkhd)
        234952 MiB available memory on the node where the printing process lives
------------------
     ethr =  1.00E-13,  avg # of iterations =  1.0

     total cpu time spent up to now is      103.3 secs

     total energy              =    -184.83180290 Ry
     estimated scf accuracy    <          2.8E-15 Ry

     iteration # 55     ecut=    80.00 Ry     beta= 0.20
     Davidson diagonalization with overlap

---- Real-time Memory Report at c_bands before calling an iterative solver
           140 MiB given to the printing process from OS
           110 MiB allocation reported by mallinfo(arena+hblkhd)
        234954 MiB available memory on the node where the printing process lives
------------------
     ethr =  1.00E-13,  avg # of iterations =  1.0

     total cpu time spent up to now is      104.4 secs

     total energy              =    -184.83180290 Ry
     estimated scf accuracy    <          2.8E-15 Ry

     iteration # 56     ecut=    80.00 Ry     beta= 0.20
     Davidson diagonalization with overlap

---- Real-time Memory Report at c_bands before calling an iterative solver
           140 MiB given to the printing process from OS
           110 MiB allocation reported by mallinfo(arena+hblkhd)
        234955 MiB available memory on the node where the printing process lives
------------------
     ethr =  1.00E-13,  avg # of iterations =  1.0

     total cpu time spent up to now is      105.6 secs

     total energy              =    -184.83180290 Ry
     estimated scf accuracy    <          9.3E-16 Ry

     iteration # 57     ecut=    80.00 Ry     beta= 0.20
     Davidson diagonalization with overlap

---- Real-time Memory Report at c_bands before calling an iterative solver
           140 MiB given to the printing process from OS
           110 MiB allocation reported by mallinfo(arena+hblkhd)
        234955 MiB available memory on the node where the printing process lives
------------------
     ethr =  1.00E-13,  avg # of iterations =  1.0

     total cpu time spent up to now is      106.7 secs

     total energy              =    -184.83180290 Ry
     estimated scf accuracy    <          1.4E-15 Ry

     iteration # 58     ecut=    80.00 Ry     beta= 0.20
     Davidson diagonalization with overlap

---- Real-time Memory Report at c_bands before calling an iterative solver
           140 MiB given to the printing process from OS
           110 MiB allocation reported by mallinfo(arena+hblkhd)
        234955 MiB available memory on the node where the printing process lives
------------------
     ethr =  1.00E-13,  avg # of iterations =  1.0

     total cpu time spent up to now is      107.9 secs

     total energy              =    -184.83180290 Ry
     estimated scf accuracy    <          1.3E-15 Ry

     iteration # 59     ecut=    80.00 Ry     beta= 0.20
     Davidson diagonalization with overlap

---- Real-time Memory Report at c_bands before calling an iterative solver
           140 MiB given to the printing process from OS
           110 MiB allocation reported by mallinfo(arena+hblkhd)
        234927 MiB available memory on the node where the printing process lives
------------------
     ethr =  1.00E-13,  avg # of iterations =  1.0

     total cpu time spent up to now is      109.0 secs

     total energy              =    -184.83180290 Ry
     estimated scf accuracy    <          1.6E-16 Ry

     iteration # 60     ecut=    80.00 Ry     beta= 0.20
     Davidson diagonalization with overlap

---- Real-time Memory Report at c_bands before calling an iterative solver
           140 MiB given to the printing process from OS
           110 MiB allocation reported by mallinfo(arena+hblkhd)
        234954 MiB available memory on the node where the printing process lives
------------------
     ethr =  1.00E-13,  avg # of iterations =  1.0

     total cpu time spent up to now is      110.2 secs

     total energy              =    -184.83180290 Ry
     estimated scf accuracy    <          2.3E-16 Ry

     iteration # 61     ecut=    80.00 Ry     beta= 0.20
     Davidson diagonalization with overlap

---- Real-time Memory Report at c_bands before calling an iterative solver
           140 MiB given to the printing process from OS
           110 MiB allocation reported by mallinfo(arena+hblkhd)
        234953 MiB available memory on the node where the printing process lives
------------------
     ethr =  1.00E-13,  avg # of iterations =  1.0

     total cpu time spent up to now is      111.4 secs

     total energy              =    -184.83180290 Ry
     estimated scf accuracy    <          3.6E-16 Ry

     iteration # 62     ecut=    80.00 Ry     beta= 0.20
     Davidson diagonalization with overlap

---- Real-time Memory Report at c_bands before calling an iterative solver
           140 MiB given to the printing process from OS
           110 MiB allocation reported by mallinfo(arena+hblkhd)
        234954 MiB available memory on the node where the printing process lives
------------------
     ethr =  1.00E-13,  avg # of iterations =  1.0

     total cpu time spent up to now is      112.5 secs

     total energy              =    -184.83180290 Ry
     estimated scf accuracy    <          1.8E-16 Ry

     iteration # 63     ecut=    80.00 Ry     beta= 0.20
     Davidson diagonalization with overlap

---- Real-time Memory Report at c_bands before calling an iterative solver
           140 MiB given to the printing process from OS
           110 MiB allocation reported by mallinfo(arena+hblkhd)
        234954 MiB available memory on the node where the printing process lives
------------------
     ethr =  1.00E-13,  avg # of iterations =  1.0

     total cpu time spent up to now is      113.7 secs

     End of self-consistent calculation

          k = 0.0000 0.0000 0.0000 ( 14903 PWs)   bands (ev):

   -66.6922 -40.8943 -40.6351 -40.6351 -20.1695 -18.8119 -11.7180  -8.5863
    -8.5863  -7.7969  -7.4344  -7.4344  -6.0244

     occupation numbers 
     1.0000   1.0000   1.0000   1.0000   1.0000   1.0000   1.0000   1.0000
     1.0000   1.0000   1.0000   1.0000   1.0000

          k = 0.0000 0.0642 0.0000 ( 14913 PWs)   bands (ev):

   -66.6909 -40.8917 -40.6483 -40.6381 -20.1209 -18.7921 -11.6626  -8.6964
    -8.5353  -8.0716  -7.5136  -7.2297  -6.0422

     occupation numbers 
     1.0000   1.0000   1.0000   1.0000   1.0000   1.0000   1.0000   1.0000
     1.0000   1.0000   1.0000   1.0000   1.0000

          k = 0.0000 0.1283 0.0000 ( 14905 PWs)   bands (ev):

   -66.6871 -40.8843 -40.6861 -40.6467 -19.9784 -18.7339 -11.5067  -8.9877
    -8.4978  -8.3868  -7.7242  -7.0393  -6.1157

     occupation numbers 
     1.0000   1.0000   1.0000   1.0000   1.0000   1.0000   1.0000   1.0000
     1.0000   1.0000   1.0000   1.0000   1.0000

          k = 0.0000 0.1925 0.0000 ( 14865 PWs)   bands (ev):

   -66.6812 -40.8728 -40.7435 -40.6597 -19.7518 -18.6416 -11.2894  -9.3660
    -8.9475  -8.1553  -8.0083  -7.0294  -6.2911

     occupation numbers 
     1.0000   1.0000   1.0000   1.0000   1.0000   1.0000   1.0000   1.0000
     1.0000   1.0000   1.0000   1.0000   1.0000

          k = 0.0000 0.2566 0.0000 ( 14823 PWs)   bands (ev):

   -66.6740 -40.8587 -40.8132 -40.6757 -19.4580 -18.5224 -11.1051  -9.7058
    -9.4026  -8.3116  -7.8660  -7.1831  -6.5754

     occupation numbers 
     1.0000   1.0000   1.0000   1.0000   1.0000   1.0000   1.0000   1.0000
     1.0000   1.0000   1.0000   1.0000   1.0000

          k = 0.0000 0.3208 0.0000 ( 14833 PWs)   bands (ev):

   -66.6664 -40.8866 -40.8437 -40.6926 -19.1213 -18.3874 -11.1139  -9.8715
    -9.8479  -8.5953  -7.5552  -7.4036  -6.8618

     occupation numbers 
     1.0000   1.0000   1.0000   1.0000   1.0000   1.0000   1.0000   1.0000
     1.0000   1.0000   1.0000   1.0000   1.0000

          k = 0.0000 0.3849 0.0000 ( 14798 PWs)   bands (ev):

   -66.6592 -40.9548 -40.8295 -40.7085 -18.7758 -18.2514 -11.3354 -10.2564
    -9.9075  -8.8348  -7.6069  -7.2672  -6.9857

     occupation numbers 
     1.0000   1.0000   1.0000   1.0000   1.0000   1.0000   1.0000   1.0000
     1.0000   1.0000   1.0000   1.0000   1.0000

          k = 0.0000 0.4491 0.0000 ( 14778 PWs)   bands (ev):

   -66.6533 -41.0098 -40.8179 -40.7214 -18.4664 -18.1328 -11.6082 -10.5901
    -9.9776  -9.0148  -7.7553  -7.0429  -6.8905

     occupation numbers 
     1.0000   1.0000   1.0000   1.0000   1.0000   1.0000   1.0000   1.0000
     1.0000   1.0000   1.0000   1.0000   1.0000

          k = 0.0000 0.5132 0.0000 ( 14738 PWs)   bands (ev):

   -66.6494 -41.0456 -40.8104 -40.7298 -18.2470 -18.0511 -11.8157 -10.8101
   -10.0731  -9.1259  -7.8418  -6.9058  -6.7068

     occupation numbers 
     1.0000   1.0000   1.0000   1.0000   1.0000   1.0000   1.0000   1.0000
     1.0000   1.0000   1.0000   1.0000   1.0000

          k = 0.0000-0.5774 0.0000 ( 14754 PWs)   bands (ev):

   -66.6481 -41.0579 -40.8077 -40.7327 -18.1668 -18.0218 -11.8928 -10.8870
   -10.1158  -9.1635  -7.8698  -6.8606  -6.6186

     occupation numbers 
     1.0000   1.0000   1.0000   1.0000   1.0000   1.0000   1.0000   1.0000
     1.0000   1.0000   1.0000   1.0000   1.0000

          k = 0.0556 0.0321 0.0000 ( 14913 PWs)   bands (ev):

   -66.6909 -40.8917 -40.6483 -40.6381 -20.1209 -18.7921 -11.6626  -8.6964
    -8.5353  -8.0716  -7.5136  -7.2297  -6.0422

     occupation numbers 
     1.0000   1.0000   1.0000   1.0000   1.0000   1.0000   1.0000   1.0000
     1.0000   1.0000   1.0000   1.0000   1.0000

          k = 0.0556 0.0962 0.0000 ( 14895 PWs)   bands (ev):

   -66.6883 -40.8867 -40.6735 -40.6442 -20.0253 -18.7531 -11.5566  -8.8958
    -8.4367  -8.3711  -7.6863  -7.0527  -6.0877

     occupation numbers 
     1.0000   1.0000   1.0000   1.0000   1.0000   1.0000   1.0000   1.0000
     1.0000   1.0000   1.0000   1.0000   1.0000

          k = 0.0556 0.1604 0.0000 ( 14862 PWs)   bands (ev):

   -66.6835 -40.8772 -40.7202 -40.6558 -19.8407 -18.6777 -11.3671  -9.2264
    -8.7563  -8.2521  -7.9914  -6.9381  -6.2124

     occupation numbers 
     1.0000   1.0000   1.0000   1.0000   1.0000   1.0000   1.0000   1.0000
     1.0000   1.0000   1.0000   1.0000   1.0000

          k = 0.0556 0.2245 0.0000 ( 14842 PWs)   bands (ev):

   -66.6770 -40.8645 -40.7826 -40.6715 -19.5802 -18.5716 -11.1559  -9.5807
    -9.1755  -8.3311  -8.0070  -6.9892  -6.4462

     occupation numbers 
     1.0000   1.0000   1.0000   1.0000   1.0000   1.0000   1.0000   1.0000
     1.0000   1.0000   1.0000   1.0000   1.0000

          k = 0.0556 0.2887 0.0000 ( 14839 PWs)   bands (ev):

   -66.6695 -40.8528 -40.8499 -40.6892 -19.2642 -18.4438 -11.0573  -9.8193
    -9.6192  -8.6322  -7.7473  -7.1745  -6.7297

     occupation numbers 
     1.0000   1.0000   1.0000   1.0000   1.0000   1.0000   1.0000   1.0000
     1.0000   1.0000   1.0000   1.0000   1.0000

          k = 0.0556 0.3528 0.0000 ( 14827 PWs)   bands (ev):

   -66.6621 -40.9223 -40.8353 -40.7070 -18.9215 -18.3069 -11.1895 -10.0605
    -9.8757  -8.8630  -7.5437  -7.4067  -6.8869

     occupation numbers 
     1.0000   1.0000   1.0000   1.0000   1.0000   1.0000   1.0000   1.0000
     1.0000   1.0000   1.0000   1.0000   1.0000

          k = 0.0556 0.4170 0.0000 ( 14797 PWs)   bands (ev):

   -66.6556 -40.9828 -40.8224 -40.7225 -18.5913 -18.1778 -11.4469 -10.4524
    -9.9107  -9.0232  -7.6172  -7.4064  -6.8135

     occupation numbers 
     1.0000   1.0000   1.0000   1.0000   1.0000   1.0000   1.0000   1.0000
     1.0000   1.0000   1.0000   1.0000   1.0000

          k = 0.0556 0.4811 0.0000 ( 14761 PWs)   bands (ev):

   -66.6507 -41.0273 -40.8128 -40.7340 -18.3232 -18.0756 -11.6865 -10.7464
   -10.0057  -9.1226  -7.7696  -7.2681  -6.6378

     occupation numbers 
     1.0000   1.0000   1.0000   1.0000   1.0000   1.0000   1.0000   1.0000
     1.0000   1.0000   1.0000   1.0000   1.0000

          k = 0.0556 0.5453 0.0000 ( 14745 PWs)   bands (ev):

   -66.6481 -41.0509 -40.8077 -40.7401 -18.1705 -18.0188 -11.8274 -10.9040
   -10.0863  -9.1699  -7.8484  -7.1770  -6.4977

     occupation numbers 
     1.0000   1.0000   1.0000   1.0000   1.0000   1.0000   1.0000   1.0000
     1.0000   1.0000   1.0000   1.0000   1.0000

          k = 0.0556-0.5453 0.0000 ( 14745 PWs)   bands (ev):

   -66.6481 -41.0509 -40.8077 -40.7401 -18.1705 -18.0188 -11.8274 -10.9040
   -10.0863  -9.1699  -7.8484  -7.1770  -6.4977

     occupation numbers 
     1.0000   1.0000   1.0000   1.0000   1.0000   1.0000   1.0000   1.0000
     1.0000   1.0000   1.0000   1.0000   1.0000

[...]

     occupation numbers 
     1.0000   1.0000   1.0000   1.0000   1.0000   1.0000   1.0000   1.0000
     1.0000   1.0000   1.0000   1.0000   1.0000

          k = 0.3889 0.6094 0.0000 ( 14778 PWs)   bands (ev):

   -66.6441 -40.9759 -40.8801 -40.7997 -17.9241 -17.8723 -11.4748 -10.9277
    -9.9378  -9.4155  -8.9903  -8.0361  -6.0734

     occupation numbers 
     1.0000   1.0000   1.0000   1.0000   1.0000   1.0000   1.0000   1.0000
     1.0000   1.0000   1.0000   1.0000   1.0000

          k = 0.3889 0.6736 0.0000 ( 14800 PWs)   bands (ev):

   -66.6450 -41.0017 -40.8433 -40.8014 -17.9720 -17.9017 -11.3658 -11.2113
    -9.9438  -9.0772  -8.9592  -7.9497  -6.1702

     occupation numbers 
     1.0000   1.0000   1.0000   1.0000   1.0000   1.0000   1.0000   1.0000
     1.0000   1.0000   1.0000   1.0000   1.0000

          k = 0.3889 0.7377 0.0000 ( 14779 PWs)   bands (ev):

   -66.6467 -41.0242 -40.8048 -40.8002 -18.0635 -17.9535 -11.4885 -11.1744
    -9.9746  -9.1731  -8.3408  -7.8445  -6.3031

     occupation numbers 
     1.0000   1.0000   1.0000   1.0000   1.0000   1.0000   1.0000   1.0000
     1.0000   1.0000   1.0000   1.0000   1.0000

          k = 0.3889-0.3528 0.0000 ( 14769 PWs)   bands (ev):

   -66.6490 -41.0343 -40.8092 -40.7626 -18.1886 -18.0169 -11.6560 -10.9510
   -10.0048  -9.2030  -7.7779  -7.7410  -6.4471

     occupation numbers 
     1.0000   1.0000   1.0000   1.0000   1.0000   1.0000   1.0000   1.0000
     1.0000   1.0000   1.0000   1.0000   1.0000

          k = 0.3889-0.2887 0.0000 ( 14761 PWs)   bands (ev):

   -66.6515 -41.0301 -40.8143 -40.7362 -18.3320 -18.0811 -11.6950 -10.7509
   -10.0124  -9.1333  -7.7664  -7.2746  -6.6428

     occupation numbers 
     1.0000   1.0000   1.0000   1.0000   1.0000   1.0000   1.0000   1.0000
     1.0000   1.0000   1.0000   1.0000   1.0000

          k = 0.3889-0.2245 0.0000 ( 14778 PWs)   bands (ev):

   -66.6541 -41.0125 -40.8194 -40.7236 -18.4751 -18.1379 -11.6177 -10.5944
    -9.9839  -9.0267  -7.7518  -7.0528  -6.8928

     occupation numbers 
     1.0000   1.0000   1.0000   1.0000   1.0000   1.0000   1.0000   1.0000
     1.0000   1.0000   1.0000   1.0000   1.0000

          k = 0.3889-0.1604 0.0000 ( 14797 PWs)   bands (ev):

   -66.6564 -40.9854 -40.8239 -40.7247 -18.5998 -18.1825 -11.4573 -10.4576
    -9.9168  -9.0337  -7.6143  -7.4141  -6.8186

     occupation numbers 
     1.0000   1.0000   1.0000   1.0000   1.0000   1.0000   1.0000   1.0000
     1.0000   1.0000   1.0000   1.0000   1.0000

          k = 0.3889-0.0962 0.0000 ( 14793 PWs)   bands (ev):

   -66.6581 -40.9558 -40.8273 -40.7354 -18.6914 -18.2127 -11.2709 -10.3195
    -9.8234  -9.1811  -7.8456  -7.3636  -6.7721

     occupation numbers 
     1.0000   1.0000   1.0000   1.0000   1.0000   1.0000   1.0000   1.0000
     1.0000   1.0000   1.0000   1.0000   1.0000

          k = 0.3889-0.0321 0.0000 ( 14822 PWs)   bands (ev):

   -66.6590 -40.9347 -40.8290 -40.7464 -18.7396 -18.2278 -11.1407 -10.2076
    -9.7430  -9.3319  -8.1377  -7.1663  -6.7630

     occupation numbers 
     1.0000   1.0000   1.0000   1.0000   1.0000   1.0000   1.0000   1.0000
     1.0000   1.0000   1.0000   1.0000   1.0000

          k = 0.3889 0.0321 0.0000 ( 14822 PWs)   bands (ev):

   -66.6590 -40.9347 -40.8290 -40.7464 -18.7396 -18.2278 -11.1407 -10.2076
    -9.7430  -9.3319  -8.1377  -7.1663  -6.7630

     occupation numbers 
     1.0000   1.0000   1.0000   1.0000   1.0000   1.0000   1.0000   1.0000
     1.0000   1.0000   1.0000   1.0000   1.0000

          k = 0.3889 0.0962 0.0000 ( 14793 PWs)   bands (ev):

   -66.6581 -40.9558 -40.8273 -40.7354 -18.6914 -18.2127 -11.2709 -10.3195
    -9.8234  -9.1811  -7.8456  -7.3636  -6.7721

     occupation numbers 
     1.0000   1.0000   1.0000   1.0000   1.0000   1.0000   1.0000   1.0000
     1.0000   1.0000   1.0000   1.0000   1.0000

          k = 0.3889 0.1604 0.0000 ( 14797 PWs)   bands (ev):

   -66.6564 -40.9854 -40.8239 -40.7247 -18.5998 -18.1825 -11.4573 -10.4576
    -9.9168  -9.0337  -7.6143  -7.4141  -6.8186

     occupation numbers 
     1.0000   1.0000   1.0000   1.0000   1.0000   1.0000   1.0000   1.0000
     1.0000   1.0000   1.0000   1.0000   1.0000

          k = 0.4444 0.2566 0.0000 ( 14738 PWs)   bands (ev):

   -66.6503 -41.0483 -40.8118 -40.7320 -18.2558 -18.0567 -11.8236 -10.8137
   -10.0802  -9.1379  -7.8382  -6.9147  -6.7088

     occupation numbers 
     1.0000   1.0000   1.0000   1.0000   1.0000   1.0000   1.0000   1.0000
     1.0000   1.0000   1.0000   1.0000   1.0000

          k = 0.4444 0.3208 0.0000 ( 14745 PWs)   bands (ev):

   -66.6489 -41.0537 -40.8092 -40.7423 -18.1794 -18.0246 -11.8348 -10.9082
   -10.0937  -9.1807  -7.8450  -7.1831  -6.5020

     occupation numbers 
     1.0000   1.0000   1.0000   1.0000   1.0000   1.0000   1.0000   1.0000
     1.0000   1.0000   1.0000   1.0000   1.0000

          k = 0.4444 0.3849 0.0000 ( 14758 PWs)   bands (ev):

   -66.6477 -41.0450 -40.8068 -40.7664 -18.1130 -17.9881 -11.7160 -11.0376
   -10.0571  -9.1952  -7.8424  -7.7100  -6.3653

     occupation numbers 
     1.0000   1.0000   1.0000   1.0000   1.0000   1.0000   1.0000   1.0000
     1.0000   1.0000   1.0000   1.0000   1.0000

          k = 0.4444 0.4491 0.0000 ( 14779 PWs)   bands (ev):

   -66.6467 -41.0242 -40.8048 -40.8002 -18.0635 -17.9535 -11.4885 -11.1744
    -9.9746  -9.1731  -8.3408  -7.8445  -6.3031

     occupation numbers 
     1.0000   1.0000   1.0000   1.0000   1.0000   1.0000   1.0000   1.0000
     1.0000   1.0000   1.0000   1.0000   1.0000

          k = 0.4444 0.5132 0.0000 ( 14789 PWs)   bands (ev):

   -66.6460 -40.9981 -40.8350 -40.8035 -18.0337 -17.9284 -11.2775 -11.2311
    -9.8338  -9.1431  -8.9497  -7.8445  -6.2751

     occupation numbers 
     1.0000   1.0000   1.0000   1.0000   1.0000   1.0000   1.0000   1.0000
     1.0000   1.0000   1.0000   1.0000   1.0000

          k = 0.4444 0.5774 0.0000 ( 14764 PWs)   bands (ev):

   -66.6458 -40.9840 -40.8522 -40.8030 -18.0238 -17.9191 -11.3156 -11.1066
    -9.6718  -9.3087  -9.1304  -7.8432  -6.2665

     occupation numbers 
     1.0000   1.0000   1.0000   1.0000   1.0000   1.0000   1.0000   1.0000
     1.0000   1.0000   1.0000   1.0000   1.0000

          k = 0.4444 0.6415 0.0000 ( 14789 PWs)   bands (ev):

   -66.6460 -40.9981 -40.8350 -40.8035 -18.0337 -17.9284 -11.2775 -11.2311
    -9.8338  -9.1431  -8.9497  -7.8445  -6.2751

     occupation numbers 
     1.0000   1.0000   1.0000   1.0000   1.0000   1.0000   1.0000   1.0000
     1.0000   1.0000   1.0000   1.0000   1.0000

          k = 0.4444 0.7057 0.0000 ( 14779 PWs)   bands (ev):

   -66.6467 -41.0242 -40.8048 -40.8002 -18.0635 -17.9535 -11.4885 -11.1744
    -9.9746  -9.1731  -8.3408  -7.8445  -6.3031

     occupation numbers 
     1.0000   1.0000   1.0000   1.0000   1.0000   1.0000   1.0000   1.0000
     1.0000   1.0000   1.0000   1.0000   1.0000

          k = 0.4444 0.7698 0.0000 ( 14758 PWs)   bands (ev):

   -66.6477 -41.0450 -40.8068 -40.7664 -18.1130 -17.9881 -11.7160 -11.0376
   -10.0571  -9.1952  -7.8424  -7.7100  -6.3653

     occupation numbers 
     1.0000   1.0000   1.0000   1.0000   1.0000   1.0000   1.0000   1.0000
     1.0000   1.0000   1.0000   1.0000   1.0000

          k = 0.4444-0.3208 0.0000 ( 14745 PWs)   bands (ev):

   -66.6489 -41.0537 -40.8092 -40.7423 -18.1794 -18.0246 -11.8348 -10.9082
   -10.0937  -9.1807  -7.8450  -7.1831  -6.5020

     occupation numbers 
     1.0000   1.0000   1.0000   1.0000   1.0000   1.0000   1.0000   1.0000
     1.0000   1.0000   1.0000   1.0000   1.0000

          k = 0.4444-0.2566 0.0000 ( 14738 PWs)   bands (ev):

   -66.6503 -41.0483 -40.8118 -40.7320 -18.2558 -18.0567 -11.8236 -10.8137
   -10.0802  -9.1379  -7.8382  -6.9147  -6.7088

     occupation numbers 
     1.0000   1.0000   1.0000   1.0000   1.0000   1.0000   1.0000   1.0000
     1.0000   1.0000   1.0000   1.0000   1.0000

          k = 0.4444-0.1925 0.0000 ( 14761 PWs)   bands (ev):

   -66.6515 -41.0301 -40.8143 -40.7362 -18.3320 -18.0811 -11.6950 -10.7509
   -10.0124  -9.1333  -7.7664  -7.2746  -6.6428

     occupation numbers 
     1.0000   1.0000   1.0000   1.0000   1.0000   1.0000   1.0000   1.0000
     1.0000   1.0000   1.0000   1.0000   1.0000

          k = 0.4444-0.1283 0.0000 ( 14783 PWs)   bands (ev):

   -66.6526 -41.0034 -40.8164 -40.7519 -18.3964 -18.0970 -11.4927 -10.7016
    -9.8906  -9.2098  -7.8117  -7.6036  -6.6215

     occupation numbers 
     1.0000   1.0000   1.0000   1.0000   1.0000   1.0000   1.0000   1.0000
     1.0000   1.0000   1.0000   1.0000   1.0000

          k = 0.4444-0.0642 0.0000 ( 14791 PWs)   bands (ev):

   -66.6532 -40.9771 -40.8177 -40.7712 -18.4394 -18.1055 -11.2978 -10.6607
    -9.7278  -9.3136  -8.3129  -7.4269  -6.6456

     occupation numbers 
     1.0000   1.0000   1.0000   1.0000   1.0000   1.0000   1.0000   1.0000
     1.0000   1.0000   1.0000   1.0000   1.0000

          k = 0.4444 0.0000 0.0000 ( 14789 PWs)   bands (ev):

   -66.6535 -40.9652 -40.8182 -40.7807 -18.4545 -18.1082 -11.2149 -10.6431
    -9.6249  -9.3607  -8.5482  -7.3500  -6.6608

     occupation numbers 
     1.0000   1.0000   1.0000   1.0000   1.0000   1.0000   1.0000   1.0000
     1.0000   1.0000   1.0000   1.0000   1.0000

          k = 0.4444 0.0642 0.0000 ( 14791 PWs)   bands (ev):

   -66.6532 -40.9771 -40.8177 -40.7712 -18.4394 -18.1055 -11.2978 -10.6607
    -9.7278  -9.3136  -8.3129  -7.4269  -6.6456

     occupation numbers 
     1.0000   1.0000   1.0000   1.0000   1.0000   1.0000   1.0000   1.0000
     1.0000   1.0000   1.0000   1.0000   1.0000

          k = 0.4444 0.1283 0.0000 ( 14783 PWs)   bands (ev):

   -66.6526 -41.0034 -40.8164 -40.7519 -18.3964 -18.0970 -11.4927 -10.7016
    -9.8906  -9.2098  -7.8117  -7.6036  -6.6215

     occupation numbers 
     1.0000   1.0000   1.0000   1.0000   1.0000   1.0000   1.0000   1.0000
     1.0000   1.0000   1.0000   1.0000   1.0000

          k = 0.4444 0.1925 0.0000 ( 14761 PWs)   bands (ev):

   -66.6515 -41.0301 -40.8143 -40.7362 -18.3320 -18.0811 -11.6950 -10.7509
   -10.0124  -9.1333  -7.7664  -7.2746  -6.6428

     occupation numbers 
     1.0000   1.0000   1.0000   1.0000   1.0000   1.0000   1.0000   1.0000
     1.0000   1.0000   1.0000   1.0000   1.0000

          k =-0.5000-0.2887 0.0000 ( 14754 PWs)   bands (ev):

   -66.6489 -41.0607 -40.8092 -40.7349 -18.1758 -18.0277 -11.9001 -10.8904
   -10.1232  -9.1755  -7.8662  -6.8690  -6.6203

     occupation numbers 
     1.0000   1.0000   1.0000   1.0000   1.0000   1.0000   1.0000   1.0000
     1.0000   1.0000   1.0000   1.0000   1.0000

          k =-0.5000-0.2245 0.0000 ( 14745 PWs)   bands (ev):

   -66.6489 -41.0537 -40.8092 -40.7423 -18.1794 -18.0246 -11.8348 -10.9082
   -10.0937  -9.1807  -7.8450  -7.1831  -6.5020

     occupation numbers 
     1.0000   1.0000   1.0000   1.0000   1.0000   1.0000   1.0000   1.0000
     1.0000   1.0000   1.0000   1.0000   1.0000

          k =-0.5000-0.1604 0.0000 ( 14769 PWs)   bands (ev):

   -66.6490 -41.0343 -40.8092 -40.7626 -18.1886 -18.0169 -11.6560 -10.9510
   -10.0048  -9.2030  -7.7779  -7.7410  -6.4471

     occupation numbers 
     1.0000   1.0000   1.0000   1.0000   1.0000   1.0000   1.0000   1.0000
     1.0000   1.0000   1.0000   1.0000   1.0000

          k =-0.5000-0.0962 0.0000 ( 14782 PWs)   bands (ev):

   -66.6490 -41.0079 -40.8093 -40.7901 -18.1989 -18.0081 -11.4229 -10.9965
    -9.8514  -9.2407  -8.3533  -7.6805  -6.4613

     occupation numbers 
     1.0000   1.0000   1.0000   1.0000   1.0000   1.0000   1.0000   1.0000
     1.0000   1.0000   1.0000   1.0000   1.0000

          k =-0.5000-0.0321 0.0000 ( 14777 PWs)   bands (ev):

   -66.6490 -40.9864 -40.8124 -40.8093 -18.2056 -18.0023 -11.2476 -11.0246
    -9.6434  -9.2706  -8.8563  -7.6058  -6.4861

     occupation numbers 
     1.0000   1.0000   1.0000   1.0000   1.0000   1.0000   1.0000   1.0000
     1.0000   1.0000   1.0000   1.0000   1.0000

          k =-0.5000 0.0321 0.0000 ( 14777 PWs)   bands (ev):

   -66.6490 -40.9864 -40.8124 -40.8093 -18.2056 -18.0023 -11.2476 -11.0246
    -9.6434  -9.2706  -8.8563  -7.6058  -6.4861

     occupation numbers 
     1.0000   1.0000   1.0000   1.0000   1.0000   1.0000   1.0000   1.0000
     1.0000   1.0000   1.0000   1.0000   1.0000

          k =-0.5000 0.0962 0.0000 ( 14782 PWs)   bands (ev):

   -66.6490 -41.0079 -40.8093 -40.7901 -18.1989 -18.0081 -11.4229 -10.9965
    -9.8514  -9.2407  -8.3533  -7.6805  -6.4613

     occupation numbers 
     1.0000   1.0000   1.0000   1.0000   1.0000   1.0000   1.0000   1.0000
     1.0000   1.0000   1.0000   1.0000   1.0000

          k =-0.5000 0.1604 0.0000 ( 14769 PWs)   bands (ev):

   -66.6490 -41.0343 -40.8092 -40.7626 -18.1886 -18.0169 -11.6560 -10.9510
   -10.0048  -9.2030  -7.7779  -7.7410  -6.4471

     occupation numbers 
     1.0000   1.0000   1.0000   1.0000   1.0000   1.0000   1.0000   1.0000
     1.0000   1.0000   1.0000   1.0000   1.0000

          k =-0.5000 0.2245 0.0000 ( 14745 PWs)   bands (ev):

   -66.6489 -41.0537 -40.8092 -40.7423 -18.1794 -18.0246 -11.8348 -10.9082
   -10.0937  -9.1807  -7.8450  -7.1831  -6.5020

     occupation numbers 
     1.0000   1.0000   1.0000   1.0000   1.0000   1.0000   1.0000   1.0000
     1.0000   1.0000   1.0000   1.0000   1.0000

          k =-0.5000-0.8660 0.0000 ( 14754 PWs)   bands (ev):

   -66.6489 -41.0607 -40.8092 -40.7349 -18.1758 -18.0277 -11.9001 -10.8904
   -10.1232  -9.1755  -7.8662  -6.8690  -6.6203

     occupation numbers 
     1.0000   1.0000   1.0000   1.0000   1.0000   1.0000   1.0000   1.0000
     1.0000   1.0000   1.0000   1.0000   1.0000

     highest occupied level (ev):    -5.9734

!    total energy              =    -184.83180975 Ry
     estimated scf accuracy    <          1.1E-19 Ry

     The total energy is the sum of the following terms:
     one-electron contribution =   -2099.89568890 Ry
     hartree contribution      =    1045.51977565 Ry
     xc contribution           =     -33.15855896 Ry
     ewald contribution        =     902.70266247 Ry

     convergence has been achieved in  34 iterations

     Forces acting on atoms (cartesian axes, Ry/au):

     atom    1 type  1   force =    -0.00000000   -0.00000000   -0.00000000
     atom    2 type  2   force =     0.00000000    0.00000000    0.00000017
     atom    3 type  2   force =     0.00000000    0.00000000   -0.00000017
     The non-local contrib.  to forces
     atom    1 type  1   force =    -0.00000000    0.00000000    0.00000000
     atom    2 type  2   force =     0.00000000    0.00000000   -0.25644501
     atom    3 type  2   force =     0.00000000    0.00000000    0.25644501
     The ionic contribution  to forces
     atom    1 type  1   force =    -0.00000000   -0.00000001    0.00000000
     atom    2 type  2   force =     0.00000000    0.00000000   46.75414160
     atom    3 type  2   force =     0.00000000    0.00000000  -46.75414160
     The local contribution  to forces
     atom    1 type  1   force =     0.00000000    0.00000001   -0.00000000
     atom    2 type  2   force =    -0.00000000   -0.00000000  -46.50192929
     atom    3 type  2   force =    -0.00000000   -0.00000000   46.50192929
     The core correction contribution to forces
     atom    1 type  1   force =    -0.00000000   -0.00000000   -0.00000000
     atom    2 type  2   force =    -0.00000000   -0.00000000    0.00423288
     atom    3 type  2   force =    -0.00000000   -0.00000000   -0.00423288
     The Hubbard contrib.    to forces
     atom    1 type  1   force =     0.00000000    0.00000000    0.00000000
     atom    2 type  2   force =     0.00000000    0.00000000    0.00000000
     atom    3 type  2   force =     0.00000000    0.00000000    0.00000000
     The SCF correction term to forces
     atom    1 type  1   force =    -0.00000000   -0.00000000   -0.00000000
     atom    2 type  2   force =    -0.00000000    0.00000000   -0.00000000
     atom    3 type  2   force =     0.00000000    0.00000000   -0.00000000

     Total force =     0.000000     Total SCF correction =     0.000000
     Message from routine bfgs:
     history already reset at previous step: exiting
     Energy error            =      2.4E-11 Ry
     Gradient error          =      1.7E-07 Ry/Bohr

     bfgs failed after   6 scf cycles and   5 bfgs steps, convergence not achieved
     (criteria: energy <  1.0E-09 Ry, force <  1.0E-08 Ry/Bohr)

     End of BFGS Geometry Optimization

     Final energy             =    -184.8318097470 Ry

     File ./tmp/MoS2.bfgs deleted, as requested
Begin final coordinates

ATOMIC_POSITIONS (crystal)
Mo               0.3333333336        0.6666666672        0.0000000000
S                0.6666666666        0.3333333333        0.0735294920    0   0   1
S                0.6666666666        0.3333333333       -0.0735294920    0   0   1
End final coordinates



     Writing all to output data dir ./tmp/MoS2.save/ :
     XML data file, charge density, pseudopotentials, collected wavefunctions

     init_run     :      1.98s CPU      2.16s WALL (       1 calls)
     electrons    :    372.46s CPU    391.14s WALL (       6 calls)
     update_pot   :      0.86s CPU      0.98s WALL (       5 calls)
     forces       :      1.88s CPU      2.02s WALL (       6 calls)

     Called by init_run:
     wfcinit      :      0.53s CPU      0.57s WALL (       1 calls)
     wfcinit:atom :      0.01s CPU      0.01s WALL (      21 calls)
     wfcinit:wfcr :      0.44s CPU      0.48s WALL (      21 calls)
     potinit      :      0.78s CPU      0.81s WALL (       1 calls)
     hinit0       :      0.47s CPU      0.55s WALL (       1 calls)

     Called by electrons:
     c_bands      :    268.72s CPU    278.45s WALL (     301 calls)
     sum_band     :     50.83s CPU     51.39s WALL (     301 calls)
     v_of_rho     :     37.81s CPU     45.63s WALL (     302 calls)
     v_h          :      2.52s CPU      3.50s WALL (     302 calls)
     v_xc         :     36.03s CPU     42.99s WALL (     308 calls)
     mix_rho      :      3.62s CPU      3.65s WALL (     301 calls)

     Called by c_bands:
     init_us_2    :     12.23s CPU     12.80s WALL (   12789 calls)
     cegterg      :    222.69s CPU    228.80s WALL (    6321 calls)

     Called by sum_band:
     sum_band:wei :      0.02s CPU      0.02s WALL (     301 calls)
     sum_band:loo :     46.91s CPU     47.44s WALL (     301 calls)
     sum_band:buf :      0.32s CPU      0.33s WALL (    6321 calls)
     sum_band:ini :      5.93s CPU      5.99s WALL (    6321 calls)

     Called by *egterg:
     cdiaghg      :      4.80s CPU      8.15s WALL (   17991 calls)
     cegterg:over :      5.40s CPU      5.46s WALL (   11880 calls)
     cegterg:upda :      3.28s CPU      3.33s WALL (   11880 calls)
     cegterg:last :      3.55s CPU      3.59s WALL (    9252 calls)
     h_psi        :    201.58s CPU    204.21s WALL (   18222 calls)
     g_psi        :      0.82s CPU      0.83s WALL (   11880 calls)

     Called by h_psi:
     h_psi:calbec :      9.51s CPU      9.66s WALL (   18222 calls)
     vloc_psi     :    182.57s CPU    184.94s WALL (   18222 calls)
                                        0.00s GPU  (   18222 calls)
     add_vuspsi   :      8.73s CPU      8.84s WALL (   18222 calls)

     General routines
     calbec       :      9.76s CPU      9.92s WALL (   18726 calls)
     fft          :     17.60s CPU     21.41s WALL (    3682 calls)
     ffts         :      1.10s CPU      1.10s WALL (     603 calls)
     fftw         :    201.55s CPU    204.05s WALL (  458733 calls)
     interpolate  :      2.40s CPU      2.47s WALL (     302 calls)
     davcio       :      0.00s CPU      0.02s WALL (      21 calls)

     Parallel routines

     PWSCF        :   6m28.49s CPU   6m54.01s WALL


   This run was terminated on:   9:22:31  24Feb2026            

=------------------------------------------------------------------------------=
   JOB DONE.
=------------------------------------------------------------------------------=
