
     Program PHONON v.7.3.1 starts on 25Feb2026 at 13: 4:48 

     This program is part of the open-source Quantum ESPRESSO suite
     for quantum simulation of materials; please cite
         "P. Giannozzi et al., J. Phys.:Condens. Matter 21 395502 (2009);
         "P. Giannozzi et al., J. Phys.:Condens. Matter 29 465901 (2017);
         "P. Giannozzi et al., J. Chem. Phys. 152 154105 (2020);
          URL http://www.quantum-espresso.org", 
     in publications or presentations arising from this work. More details at
     http://www.quantum-espresso.org/quote

     Parallel version (MPI), running on   128 processors

     MPI processes distributed on     4 nodes
     240079 MiB available memory on the printing compute node when the environment starts

     Waiting for input...
     Reading input from standard input
      Title line not specified: using 'default'.


     Dynamical matrices for q-points given in input
     (   7q-points):
       N         xq(1)         xq(2)         xq(3) 
       1   0.000000000   0.000000000   0.000000000
       2  -0.000000003  -0.192450000   0.000000000
       3  -0.000000006  -0.384900000   0.000000000
       4   0.000000009   0.577350000   0.000000000
       5  -0.166667000  -0.288675000   0.000000000
       6  -0.166667000  -0.481125000   0.000000000
       7  -0.333333000  -0.577350000   0.000000000

     Reading xml data from directory:

     ./MoS2.save/

     R & G space division:  proc/nbgrp/npool/nimage =     128
     Subspace diagonalization in iterative solution of the eigenvalue problem:
     one sub-group per band group will be used
     custom distributed-memory algorithm (size of sub-group:  2*  2 procs)


     IMPORTANT: XC functional enforced from input :
     Exchange-correlation= PBESOL
                           (   1   4  10   8   0   0   0)
     Any further DFT definition will be discarded
     Please, verify this is what you really want


     Parallelization info
     --------------------
     sticks:   dense  smooth     PW     G-vecs:    dense   smooth      PW
     Min          15       6      1                 3641      896     113
     Max          16       7      2                 3678      944     166
     Sum        1945     769    223               468457   118307   18477

     Using Slab Decomposition

 ----2D----2D----2D----2D----2D----2D----2D----2D----2D----2D----2D----2D
  The code is running with the 2D cutoff
  Please refer to:
  Sohier, T., Calandra, M., & Mauri, F. (2017), 
  Density functional perturbation theory for gated two-dimensional heterostructures:
  Theoretical developments and application to flexural phonons in graphene.
  Physical Review B, 96(7), 75448. https://doi.org/10.1103/PhysRevB.96.075448
 ----2D----2D----2D----2D----2D----2D----2D----2D----2D----2D----2D----2D
     Reading collected, re-writing distributed wavefunctions in ./

     Saving dvscf to file. Distribute only q points, not irreducible representations.

     Calculation of q =    0.0000000   0.0000000   0.0000000

     Parallelization info
     --------------------
     sticks:   dense  smooth     PW     G-vecs:    dense   smooth      PW
     Min          15       6      1                 3641      896     113
     Max          16       7      2                 3678      944     166
     Sum        1945     769    223               468457   118307   18477

     Using Slab Decomposition


     Title: 
     default                                                                    


     bravais-lattice index     =            4
     lattice parameter (alat)  =       5.9477  a.u.
     unit-cell volume          =    1225.4506 (a.u.)^3
     number of atoms/cell      =            3
     number of atomic types    =            2
     number of electrons       =        26.00
     number of Kohn-Sham states=          200
     kinetic-energy cutoff     =      80.0000  Ry
     charge density cutoff     =     800.0000  Ry
     Exchange-correlation= PBESOL
                           (   1   4  10   8   0   0   0)

     celldm(1)=   5.947749  celldm(2)=   0.000000  celldm(3)=   6.725234
     celldm(4)=   0.000000  celldm(5)=   0.000000  celldm(6)=   0.000000

     crystal axes: (cart. coord. in units of alat)
               a(1) = (   1.000000   0.000000   0.000000 )  
               a(2) = (  -0.500000   0.866025   0.000000 )  
               a(3) = (   0.000000   0.000000   6.725234 )  

     reciprocal axes: (cart. coord. in units 2 pi/alat)
               b(1) = (  1.000000  0.577350 -0.000000 )  
               b(2) = (  0.000000  1.154701  0.000000 )  
               b(3) = (  0.000000 -0.000000  0.148694 )  


     PseudoPot. # 1 for Mo read from file:
     ../pseudo/Mo.pbesol.dojo.upf
     MD5 check sum: c40353276b9086539cda6b9e5a66907b
     Pseudo is Norm-conserving + core correction, Zval = 14.0
     Generated using ONCVPSP code by D. R. Hamann
     Using radial grid of 1640 points,  6 beta functions with: 
                l(1) =   0
                l(2) =   0
                l(3) =   1
                l(4) =   1
                l(5) =   2
                l(6) =   2

     PseudoPot. # 2 for S  read from file:
     ../pseudo/S.pbesol.dojo.upf
     MD5 check sum: 501737efeeef1fb1c631cda521d4e019
     Pseudo is Norm-conserving + core correction, Zval =  6.0
     Generated using ONCVPSP code by D. R. Hamann
     Using radial grid of 1146 points,  6 beta functions with: 
                l(1) =   0
                l(2) =   0
                l(3) =   1
                l(4) =   1
                l(5) =   2
                l(6) =   2

     atomic species   valence    mass     pseudopotential
     Mo               14.00    95.95000     Mo( 1.00)
     S                 6.00    32.06500     S ( 1.00)

     12 Sym. Ops. (no inversion) found


                                    s                        frac. trans.

      isym =  1     identity                                     

 cryst.   s( 1) = (     1          0          0      )
                  (     0          1          0      )
                  (     0          0          1      )

 cart.    s( 1) = (  1.0000000  0.0000000  0.0000000 )
                  (  0.0000000  1.0000000  0.0000000 )
                  (  0.0000000  0.0000000  1.0000000 )


      isym =  2     180 deg rotation - cart. axis [0,1,0]        

 cryst.   s( 2) = (    -1          0          0      )
                  (     1          1          0      )
                  (     0          0         -1      )

 cart.    s( 2) = ( -1.0000000  0.0000000  0.0000000 )
                  (  0.0000000  1.0000000  0.0000000 )
                  (  0.0000000  0.0000000 -1.0000000 )


      isym =  3     120 deg rotation - cryst. axis [0,0,1]       

 cryst.   s( 3) = (     0          1          0      )
                  (    -1         -1          0      )
                  (     0          0          1      )

 cart.    s( 3) = ( -0.5000000 -0.8660254  0.0000000 )
                  (  0.8660254 -0.5000000  0.0000000 )
                  (  0.0000000  0.0000000  1.0000000 )


      isym =  4     120 deg rotation - cryst. axis [0,0,-1]      

 cryst.   s( 4) = (    -1         -1          0      )
                  (     1          0          0      )
                  (     0          0          1      )

 cart.    s( 4) = ( -0.5000000  0.8660254  0.0000000 )
                  ( -0.8660254 -0.5000000  0.0000000 )
                  (  0.0000000  0.0000000  1.0000000 )


      isym =  5     180 deg rotation - cryst. axis [1,-1,0]      

 cryst.   s( 5) = (     0         -1          0      )
                  (    -1          0          0      )
                  (     0          0         -1      )

 cart.    s( 5) = (  0.5000000 -0.8660254  0.0000000 )
                  ( -0.8660254 -0.5000000  0.0000000 )
                  (  0.0000000  0.0000000 -1.0000000 )


      isym =  6     180 deg rotation - cryst. axis [2,1,0]       

 cryst.   s( 6) = (     1          1          0      )
                  (     0         -1          0      )
                  (     0          0         -1      )

 cart.    s( 6) = (  0.5000000  0.8660254  0.0000000 )
                  (  0.8660254 -0.5000000  0.0000000 )
                  (  0.0000000  0.0000000 -1.0000000 )


      isym =  7     inv. 180 deg rotation - cart. axis [0,0,1]   

 cryst.   s( 7) = (     1          0          0      )
                  (     0          1          0      )
                  (     0          0         -1      )

 cart.    s( 7) = (  1.0000000  0.0000000  0.0000000 )
                  (  0.0000000  1.0000000  0.0000000 )
                  (  0.0000000  0.0000000 -1.0000000 )


      isym =  8     inv. 180 deg rotation - cart. axis [1,0,0]   

 cryst.   s( 8) = (    -1          0          0      )
                  (     1          1          0      )
                  (     0          0          1      )

 cart.    s( 8) = ( -1.0000000  0.0000000  0.0000000 )
                  (  0.0000000  1.0000000  0.0000000 )
                  (  0.0000000  0.0000000  1.0000000 )


      isym =  9     inv.  60 deg rotation - cryst. axis [0,0,1]  

 cryst.   s( 9) = (    -1         -1          0      )
                  (     1          0          0      )
                  (     0          0         -1      )

 cart.    s( 9) = ( -0.5000000  0.8660254  0.0000000 )
                  ( -0.8660254 -0.5000000  0.0000000 )
                  (  0.0000000  0.0000000 -1.0000000 )


      isym = 10     inv.  60 deg rotation - cryst. axis [0,0,-1] 

 cryst.   s(10) = (     0          1          0      )
                  (    -1         -1          0      )
                  (     0          0         -1      )

 cart.    s(10) = ( -0.5000000 -0.8660254  0.0000000 )
                  (  0.8660254 -0.5000000  0.0000000 )
                  (  0.0000000  0.0000000 -1.0000000 )


      isym = 11     inv. 180 deg rotation - cryst. axis [0,1,0]  

 cryst.   s(11) = (     1          1          0      )
                  (     0         -1          0      )
                  (     0          0          1      )

 cart.    s(11) = (  0.5000000  0.8660254  0.0000000 )
                  (  0.8660254 -0.5000000  0.0000000 )
                  (  0.0000000  0.0000000  1.0000000 )


      isym = 12     inv. 180 deg rotation - cryst. axis [1,1,0]  

 cryst.   s(12) = (     0         -1          0      )
                  (    -1          0          0      )
                  (     0          0          1      )

 cart.    s(12) = (  0.5000000 -0.8660254  0.0000000 )
                  ( -0.8660254 -0.5000000  0.0000000 )
                  (  0.0000000  0.0000000  1.0000000 )


     point group D_3h (-62m)
     there are  6 classes
     the character table:

       E     2C3   3C2   s_h   2S3   3s_v 
A'_1   1.00  1.00  1.00  1.00  1.00  1.00
A'_2   1.00  1.00 -1.00  1.00  1.00 -1.00
E'     2.00 -1.00  0.00  2.00 -1.00  0.00
A''1   1.00  1.00  1.00 -1.00 -1.00 -1.00
A''2   1.00  1.00 -1.00 -1.00 -1.00  1.00
E''    2.00 -1.00  0.00 -2.00  1.00  0.00

     the symmetry operations in each class and the name of the first element:

     E        1
          identity                                               
     2C3      3    4
          120 deg rotation - cryst. axis [0,0,1]                 
     3C2      2    6    5
          180 deg rotation - cart. axis [0,1,0]                  
     s_h      7
          inv. 180 deg rotation - cart. axis [0,0,1]             
     2S3      9   10
          inv.  60 deg rotation - cryst. axis [0,0,1]            
     3s_v     8   11   12
          inv. 180 deg rotation - cart. axis [1,0,0]             

   Cartesian axes

     site n.     atom                  positions (alat units)
         1        Mo     tau(   1) = (   0.0000000   0.5773503   0.0000000  )
         2        S      tau(   2) = (   0.5000000   0.2886751   0.4945030  )
         3        S      tau(   3) = (   0.5000000   0.2886751  -0.4945030  )

   Crystallographic axes

     site n.     atom                  positions (cryst. coord.)
         1        Mo     tau(   1) = (  0.3333333  0.6666667  0.0000000  )
         2        S      tau(   2) = (  0.6666667  0.3333333  0.0735295  )
         3        S      tau(   3) = (  0.6666667  0.3333333 -0.0735295  )

     number of k points=     7
                       cart. coord. in units 2pi/alat
        k(    1) = (   0.0000000   0.0000000   0.0000000), wk =   0.0555556
        k(    2) = (   0.0000000   0.1924501   0.0000000), wk =   0.3333333
        k(    3) = (   0.0000000   0.3849002   0.0000000), wk =   0.3333333
        k(    4) = (   0.0000000  -0.5773503   0.0000000), wk =   0.1666667
        k(    5) = (   0.1666667   0.2886751   0.0000000), wk =   0.3333333
        k(    6) = (   0.1666667   0.4811252   0.0000000), wk =   0.6666667
        k(    7) = (   0.3333333   0.5773503   0.0000000), wk =   0.1111111

                       cryst. coord.
        k(    1) = (   0.0000000   0.0000000   0.0000000), wk =   0.0555556
        k(    2) = (   0.0000000   0.1666667   0.0000000), wk =   0.3333333
        k(    3) = (   0.0000000   0.3333333   0.0000000), wk =   0.3333333
        k(    4) = (   0.0000000  -0.5000000   0.0000000), wk =   0.1666667
        k(    5) = (   0.1666667   0.1666667   0.0000000), wk =   0.3333333
        k(    6) = (   0.1666667   0.3333333   0.0000000), wk =   0.6666667
        k(    7) = (   0.3333333   0.3333333   0.0000000), wk =   0.1111111

     Dense  grid:   468457 G-vectors     FFT dimensions: (  54,  54, 375)

     Smooth grid:   118307 G-vectors     FFT dimensions: (  36,  36, 240)

     Dynamical RAM for                 wfc:       0.35 MB

     Dynamical RAM for     wfc (w. buffer):       0.35 MB

     Dynamical RAM for           str. fact:       0.11 MB

     Dynamical RAM for           local pot:       0.03 MB

     Dynamical RAM for          nlocal pot:       0.09 MB

     Dynamical RAM for                qrad:       4.54 MB

     Dynamical RAM for          rho,v,vnew:       0.37 MB

     Dynamical RAM for           G-vectors:       0.22 MB

     Dynamical RAM for          h,s,v(r/c):       7.32 MB

     Dynamical RAM for          <psi|beta>:       0.16 MB

     Dynamical RAM for                 psi:       1.40 MB

     Dynamical RAM for                hpsi:       1.40 MB

     Dynamical RAM for      wfcinit/wfcrot:       1.62 MB

     Estimated static dynamical RAM per process >       6.21 MB

     Estimated max dynamical RAM per process >      16.50 MB

     Estimated total dynamical RAM >       2.06 GB
 ----2D----2D----2D----2D----2D----2D----2D----2D----2D----2D----2D----2D
  The code is running with the 2D cutoff
  Please refer to:
  Sohier, T., Calandra, M., & Mauri, F. (2017), 
  Density functional perturbation theory for gated two-dimensional heterostructures:
  Theoretical developments and application to flexural phonons in graphene.
  Physical Review B, 96(7), 75448. https://doi.org/10.1103/PhysRevB.96.075448
 ----2D----2D----2D----2D----2D----2D----2D----2D----2D----2D----2D----2D

     The potential is recalculated from file :
     ./_ph0/MoS2.save/charge-density

     Starting wfcs are   18 atomic +  182 random wfcs

     Band Structure Calculation
     Davidson diagonalization with overlap

     Computing kpt #:     1
     total cpu time spent up to now is       15.1 secs

     Computing kpt #:     2
     total cpu time spent up to now is       27.0 secs

     Computing kpt #:     3
     total cpu time spent up to now is       38.0 secs

     Computing kpt #:     4
     total cpu time spent up to now is       48.1 secs

     Computing kpt #:     5
     total cpu time spent up to now is       59.2 secs

     Computing kpt #:     6
     total cpu time spent up to now is       70.2 secs

     Computing kpt #:     7
     total cpu time spent up to now is       81.6 secs

     ethr =  3.85E-11,  avg # of iterations = 19.9

     total cpu time spent up to now is       81.6 secs

     End of band structure calculation

          k = 0.0000 0.0000 0.0000 ( 14903 PWs)   bands (ev):

   -66.6931 -40.8960 -40.6372 -40.6372 -20.1785 -18.8130 -11.7262  -8.6012
    -8.6012  -7.7928  -7.4461  -7.4461  -6.0182  -3.0914  -3.0914  -2.8120
    -2.8120  -0.3416  -0.1571   0.4374   2.1827   2.3414   3.1230   4.8343
     4.8343   5.3419   5.9940   6.8631   6.8631   7.1576   9.4461  10.1009
    10.1791  10.1791  10.4919  10.4919  10.6171  12.3252  13.9506  14.2000
    15.2409  16.2507  17.2134  17.2134  18.8367  18.8367  18.8767  19.1604
    19.5360  19.5360  19.5851  19.6822  19.6940  19.6940  20.2280  20.2585
    20.5357  20.5357  21.4637  21.4637  21.6759  21.8699  21.8784  21.8784
    22.1981  22.1981  22.2237  22.6383  22.6383  22.8354  23.6855  24.1632
    24.3731  24.3731  24.3810  24.3810  24.6869  25.1110  25.4776  25.4776
    25.6152  25.6152  25.7170  26.6608  27.2638  27.2638  27.7868  27.7868
    27.8466  28.6195  28.7092  28.9404  28.9404  29.5850  29.5850  30.0394
    30.0730  30.8210  30.8210  31.0526  31.3974  31.3974  31.5241  31.5241
    31.6615  32.2399  33.1887  33.2760  33.7973  33.7973  33.8206  33.8206
    34.5505  34.6343  35.4805  35.4805  35.5205  35.5205  36.1174  36.6665
    36.6665  36.9715  37.3490  37.3573  37.3573  37.7748  38.1955  38.6012
    38.6012  38.7221  38.7221  38.8992  39.7582  39.7582  40.6116  40.7905
    40.7905  41.4911  41.4911  41.6279  41.7091  41.8049  41.8049  42.1218
    42.5890  42.6959  42.6959  44.7375  44.7430  44.8315  44.8315  45.4771
    45.6225  45.6225  46.3249  46.3249  46.6048  46.7979  47.2927  47.3157
    47.3157  48.4459  48.6842  49.0414  49.0414  50.0748  50.0748  50.7541
    50.7541  50.8718  51.5562  52.0586  52.0586  52.1719  52.4122  52.4122
    52.8560  52.8560  53.2027  53.8633  53.8633  54.1273  54.1294  54.8972
    55.2349  55.5366  55.6926  55.6926  56.7881  56.7881  57.5284  57.5611
    57.5611  57.9275  57.9275  58.6764  58.6906  58.9474  58.9498  58.9555

     occupation numbers 
     1.0000   1.0000   1.0000   1.0000   1.0000   1.0000   1.0000   1.0000
     1.0000   1.0000   1.0000   1.0000   1.0000   0.0000   0.0000   0.0000
     0.0000   0.0000   0.0000   0.0000   0.0000   0.0000   0.0000   0.0000
     0.0000   0.0000   0.0000   0.0000   0.0000   0.0000   0.0000   0.0000
     0.0000   0.0000   0.0000   0.0000   0.0000   0.0000   0.0000   0.0000
     0.0000   0.0000   0.0000   0.0000   0.0000   0.0000   0.0000   0.0000
     0.0000   0.0000   0.0000   0.0000   0.0000   0.0000   0.0000   0.0000
     0.0000   0.0000   0.0000   0.0000   0.0000   0.0000   0.0000   0.0000
     0.0000   0.0000   0.0000   0.0000   0.0000   0.0000   0.0000   0.0000
     0.0000   0.0000   0.0000   0.0000   0.0000   0.0000   0.0000   0.0000
     0.0000   0.0000   0.0000   0.0000   0.0000   0.0000   0.0000   0.0000
     0.0000   0.0000   0.0000   0.0000   0.0000   0.0000   0.0000   0.0000
     0.0000   0.0000   0.0000   0.0000   0.0000   0.0000   0.0000   0.0000
     0.0000   0.0000   0.0000   0.0000   0.0000   0.0000   0.0000   0.0000
     0.0000   0.0000   0.0000   0.0000   0.0000   0.0000   0.0000   0.0000
     0.0000   0.0000   0.0000   0.0000   0.0000   0.0000   0.0000   0.0000
     0.0000   0.0000   0.0000   0.0000   0.0000   0.0000   0.0000   0.0000
     0.0000   0.0000   0.0000   0.0000   0.0000   0.0000   0.0000   0.0000
     0.0000   0.0000   0.0000   0.0000   0.0000   0.0000   0.0000   0.0000
     0.0000   0.0000   0.0000   0.0000   0.0000   0.0000   0.0000   0.0000
     0.0000   0.0000   0.0000   0.0000   0.0000   0.0000   0.0000   0.0000
     0.0000   0.0000   0.0000   0.0000   0.0000   0.0000   0.0000   0.0000
     0.0000   0.0000   0.0000   0.0000   0.0000   0.0000   0.0000   0.0000
     0.0000   0.0000   0.0000   0.0000   0.0000   0.0000   0.0000   0.0000
     0.0000   0.0000   0.0000   0.0000   0.0000   0.0000   0.0000   0.0000

          k = 0.0000 0.1925 0.0000 ( 14865 PWs)   bands (ev):

   -66.6821 -40.8744 -40.7457 -40.6619 -19.7605 -18.6436 -11.2985  -9.3785
    -8.9530  -8.1695  -8.0201  -7.0290  -6.2879  -3.6036  -3.3013  -3.2232
    -2.4729   0.2799   0.3789   1.9445   2.7579   2.8136   3.9206   4.1371
     5.3895   5.9045   6.0751   6.4820   6.7062   7.1055   8.4692   9.2108
     9.2424  10.8341  10.9167  11.0714  13.2248  13.5172  13.7386  13.7823
    14.9406  15.6462  15.9013  16.2016  16.3054  16.3561  16.7578  16.8925
    17.2061  17.5896  18.0286  18.4373  18.7612  19.2069  19.2385  19.4225
    19.9486  20.0577  20.1132  20.4980  21.8135  21.9523  22.0463  22.3527
    23.0885  23.2886  23.2937  23.8170  23.8721  24.1862  24.3562  24.5278
    24.8664  25.2583  25.2714  25.3926  25.9742  26.0313  26.0517  26.0811
    26.6835  26.9243  27.2081  27.4958  27.6610  27.8119  27.9980  28.6186
    28.7031  28.7162  28.9959  29.2034  29.2949  29.5293  29.6071  30.0039
    30.3996  30.4579  31.0152  31.4108  31.5049  31.8003  31.8236  31.9344
    32.4468  33.0851  33.2658  33.3165  33.4399  33.7578  34.2374  34.7128
    34.7239  34.8836  34.9969  35.3901  35.8603  36.2524  36.6290  36.6718
    37.1003  37.1180  37.3141  37.5849  38.0552  38.7038  38.7841  39.1233
    39.2205  39.3776  39.9702  40.0631  40.8749  41.0220  41.0369  41.3550
    41.5103  41.6386  41.9724  42.0155  42.3502  42.9139  42.9576  43.1710
    43.7430  43.7529  43.9344  44.6573  44.6924  44.8057  45.2473  45.2649
    45.7651  45.9266  46.0314  46.4441  46.7210  46.9064  47.1980  47.2842
    47.9225  48.0094  48.5256  48.8225  49.0793  49.5279  50.1342  50.1720
    50.2120  50.4733  50.6797  50.7467  50.7913  51.1241  51.3536  51.4099
    51.9525  51.9920  52.4545  52.7738  52.9682  52.9873  53.0548  53.2498
    53.3181  54.0868  54.1215  54.5491  54.9958  55.0467  55.1024  55.2325
    55.4809  55.7359  56.0854  56.3031  56.5130  56.5171  56.6207  57.1458

     occupation numbers 
     1.0000   1.0000   1.0000   1.0000   1.0000   1.0000   1.0000   1.0000
     1.0000   1.0000   1.0000   1.0000   1.0000   0.0000   0.0000   0.0000
     0.0000   0.0000   0.0000   0.0000   0.0000   0.0000   0.0000   0.0000
     0.0000   0.0000   0.0000   0.0000   0.0000   0.0000   0.0000   0.0000
     0.0000   0.0000   0.0000   0.0000   0.0000   0.0000   0.0000   0.0000
     0.0000   0.0000   0.0000   0.0000   0.0000   0.0000   0.0000   0.0000
     0.0000   0.0000   0.0000   0.0000   0.0000   0.0000   0.0000   0.0000
     0.0000   0.0000   0.0000   0.0000   0.0000   0.0000   0.0000   0.0000
     0.0000   0.0000   0.0000   0.0000   0.0000   0.0000   0.0000   0.0000
     0.0000   0.0000   0.0000   0.0000   0.0000   0.0000   0.0000   0.0000
     0.0000   0.0000   0.0000   0.0000   0.0000   0.0000   0.0000   0.0000
     0.0000   0.0000   0.0000   0.0000   0.0000   0.0000   0.0000   0.0000
     0.0000   0.0000   0.0000   0.0000   0.0000   0.0000   0.0000   0.0000
     0.0000   0.0000   0.0000   0.0000   0.0000   0.0000   0.0000   0.0000
     0.0000   0.0000   0.0000   0.0000   0.0000   0.0000   0.0000   0.0000
     0.0000   0.0000   0.0000   0.0000   0.0000   0.0000   0.0000   0.0000
     0.0000   0.0000   0.0000   0.0000   0.0000   0.0000   0.0000   0.0000
     0.0000   0.0000   0.0000   0.0000   0.0000   0.0000   0.0000   0.0000
     0.0000   0.0000   0.0000   0.0000   0.0000   0.0000   0.0000   0.0000
     0.0000   0.0000   0.0000   0.0000   0.0000   0.0000   0.0000   0.0000
     0.0000   0.0000   0.0000   0.0000   0.0000   0.0000   0.0000   0.0000
     0.0000   0.0000   0.0000   0.0000   0.0000   0.0000   0.0000   0.0000
     0.0000   0.0000   0.0000   0.0000   0.0000   0.0000   0.0000   0.0000
     0.0000   0.0000   0.0000   0.0000   0.0000   0.0000   0.0000   0.0000
     0.0000   0.0000   0.0000   0.0000   0.0000   0.0000   0.0000   0.0000

          k = 0.0000 0.3849 0.0000 ( 14798 PWs)   bands (ev):

   -66.6600 -40.9574 -40.8310 -40.7107 -18.7843 -18.2557 -11.3465 -10.2614
    -9.9135  -8.8467  -7.6036  -7.2785  -6.9877  -3.6457  -3.5706  -2.4760
    -1.7207   1.4071   1.5892   1.9617   2.5621   3.2132   4.2115   4.5335
     5.6261   6.1888   6.4997   7.1956   7.7952   8.4184   9.0358   9.1414
     9.4067   9.4679   9.7512  11.4920  11.5906  11.7427  12.4522  12.7781
    13.8225  14.4933  14.6295  15.4005  15.4963  15.6133  15.8541  16.4206
    16.7321  16.8340  17.1055  17.8318  17.9921  18.5969  18.6283  18.8957
    19.3137  19.5557  19.7313  20.3349  20.9752  21.1170  21.2158  21.2376
    22.1244  22.2898  22.3800  22.5772  23.2395  23.2829  23.8067  24.6138
    24.9226  25.3962  25.4314  25.4372  26.2216  26.6861  26.8209  27.2508
    27.4636  27.4863  27.7622  28.4436  28.7318  28.8004  29.2807  29.3239
    29.4616  30.2199  30.7287  30.8621  31.0688  31.1112  31.1404  31.8236
    32.0501  32.0876  32.2533  32.5566  32.6926  32.8402  33.8538  33.8869
    33.9413  34.1989  34.4683  34.7340  35.3273  35.3443  35.6653  35.8324
    35.8483  36.2113  36.2160  36.8255  37.2801  37.3820  37.4243  37.6166
    37.8066  38.5884  38.8259  39.1815  39.1954  39.2269  39.5596  39.7829
    40.0836  40.2373  40.6903  41.0443  41.2288  41.3143  41.6745  41.7822
    41.9881  42.4294  42.6054  42.8979  42.9031  42.9773  43.0366  43.4717
    43.6614  43.8338  43.9069  44.0359  44.4724  44.6200  44.7470  45.0664
    45.6350  45.7356  46.0032  46.1321  46.1838  46.5170  46.7121  46.8719
    47.0370  47.4283  47.6227  47.7218  47.8862  48.2787  48.4039  49.2410
    49.2502  49.3179  49.3635  49.4763  49.6466  49.8502  50.0042  50.1193
    50.3684  50.9303  51.6596  51.6757  51.7667  52.0800  52.3462  53.1391
    53.1707  53.3980  53.5308  53.6861  53.7024  54.2755  54.3078  54.3315
    54.4394  54.6925  54.7734  55.3402  55.4542  55.4965  55.5931  56.0563

     occupation numbers 
     1.0000   1.0000   1.0000   1.0000   1.0000   1.0000   1.0000   1.0000
     1.0000   1.0000   1.0000   1.0000   1.0000   0.0000   0.0000   0.0000
     0.0000   0.0000   0.0000   0.0000   0.0000   0.0000   0.0000   0.0000
     0.0000   0.0000   0.0000   0.0000   0.0000   0.0000   0.0000   0.0000
     0.0000   0.0000   0.0000   0.0000   0.0000   0.0000   0.0000   0.0000
     0.0000   0.0000   0.0000   0.0000   0.0000   0.0000   0.0000   0.0000
     0.0000   0.0000   0.0000   0.0000   0.0000   0.0000   0.0000   0.0000
     0.0000   0.0000   0.0000   0.0000   0.0000   0.0000   0.0000   0.0000
     0.0000   0.0000   0.0000   0.0000   0.0000   0.0000   0.0000   0.0000
     0.0000   0.0000   0.0000   0.0000   0.0000   0.0000   0.0000   0.0000
     0.0000   0.0000   0.0000   0.0000   0.0000   0.0000   0.0000   0.0000
     0.0000   0.0000   0.0000   0.0000   0.0000   0.0000   0.0000   0.0000
     0.0000   0.0000   0.0000   0.0000   0.0000   0.0000   0.0000   0.0000
     0.0000   0.0000   0.0000   0.0000   0.0000   0.0000   0.0000   0.0000
     0.0000   0.0000   0.0000   0.0000   0.0000   0.0000   0.0000   0.0000
     0.0000   0.0000   0.0000   0.0000   0.0000   0.0000   0.0000   0.0000
     0.0000   0.0000   0.0000   0.0000   0.0000   0.0000   0.0000   0.0000
     0.0000   0.0000   0.0000   0.0000   0.0000   0.0000   0.0000   0.0000
     0.0000   0.0000   0.0000   0.0000   0.0000   0.0000   0.0000   0.0000
     0.0000   0.0000   0.0000   0.0000   0.0000   0.0000   0.0000   0.0000
     0.0000   0.0000   0.0000   0.0000   0.0000   0.0000   0.0000   0.0000
     0.0000   0.0000   0.0000   0.0000   0.0000   0.0000   0.0000   0.0000
     0.0000   0.0000   0.0000   0.0000   0.0000   0.0000   0.0000   0.0000
     0.0000   0.0000   0.0000   0.0000   0.0000   0.0000   0.0000   0.0000
     0.0000   0.0000   0.0000   0.0000   0.0000   0.0000   0.0000   0.0000

          k = 0.0000-0.5774 0.0000 ( 14754 PWs)   bands (ev):

   -66.6490 -41.0607 -40.8092 -40.7349 -18.1758 -18.0277 -11.9001 -10.8904
   -10.1232  -9.1755  -7.8662  -6.8690  -6.6203  -3.5904  -3.0775  -2.0251
    -1.5035   0.1960   1.8572   2.3340   3.1010   3.7795   4.5700   5.1579
     5.3298   5.6769   5.8123   7.0085   7.3949   7.9106   8.4189   9.6496
    10.1650  10.2385  10.9082  11.3378  11.6956  12.0760  12.4293  13.0097
    13.5119  13.6577  14.0279  14.1225  14.6764  15.1871  15.8470  16.2069
    16.2069  16.7233  16.7371  17.0612  17.6570  17.7084  18.3175  18.5445
    18.7971  18.8882  19.2134  19.3523  20.3122  20.7529  21.1362  21.2776
    21.6889  22.1661  22.1821  22.3573  22.9701  23.9625  24.0458  24.5974
    25.1411  25.3383  25.6462  25.8613  26.4104  26.8055  26.8459  26.9701
    27.0379  27.4475  28.1101  28.7699  29.0239  29.6916  30.0358  30.2074
    30.2304  30.7307  30.9650  31.5674  31.7598  31.8921  32.4906  32.7943
    32.8304  32.8855  33.6869  33.9209  33.9337  34.1549  34.6895  34.9025
    35.0791  35.1427  35.2885  35.5037  35.5724  35.7217  36.0145  36.2136
    36.2924  36.6516  36.9989  37.2191  37.3283  37.6134  37.6669  37.9102
    38.0875  38.2705  38.7742  38.7983  38.9078  39.0226  39.5475  39.7993
    39.9560  40.5927  41.0748  41.1089  41.2156  41.3952  41.8489  42.0098
    42.1396  42.1459  42.5389  42.5493  43.1370  43.2536  43.4449  43.6672
    43.8665  44.0030  44.2778  44.5470  44.6885  45.0275  45.3540  45.5357
    45.6323  45.8742  46.0216  46.3243  46.4273  46.7330  46.8629  46.9855
    47.1154  47.1625  47.5407  47.7310  48.0778  48.4402  48.5872  48.9315
    48.9635  49.2900  49.4138  49.4636  49.5669  49.7315  49.7458  49.8195
    50.8834  50.9090  51.0413  51.1216  51.3122  51.4914  51.6595  51.6617
    51.8377  52.2397  52.4186  52.8629  52.8935  52.9596  53.3106  53.4761
    53.9603  54.3219  54.6900  54.7361  54.8535  54.9281  54.9743  54.9931

     occupation numbers 
     1.0000   1.0000   1.0000   1.0000   1.0000   1.0000   1.0000   1.0000
     1.0000   1.0000   1.0000   1.0000   1.0000   0.0000   0.0000   0.0000
     0.0000   0.0000   0.0000   0.0000   0.0000   0.0000   0.0000   0.0000
     0.0000   0.0000   0.0000   0.0000   0.0000   0.0000   0.0000   0.0000
     0.0000   0.0000   0.0000   0.0000   0.0000   0.0000   0.0000   0.0000
     0.0000   0.0000   0.0000   0.0000   0.0000   0.0000   0.0000   0.0000
     0.0000   0.0000   0.0000   0.0000   0.0000   0.0000   0.0000   0.0000
     0.0000   0.0000   0.0000   0.0000   0.0000   0.0000   0.0000   0.0000
     0.0000   0.0000   0.0000   0.0000   0.0000   0.0000   0.0000   0.0000
     0.0000   0.0000   0.0000   0.0000   0.0000   0.0000   0.0000   0.0000
     0.0000   0.0000   0.0000   0.0000   0.0000   0.0000   0.0000   0.0000
     0.0000   0.0000   0.0000   0.0000   0.0000   0.0000   0.0000   0.0000
     0.0000   0.0000   0.0000   0.0000   0.0000   0.0000   0.0000   0.0000
     0.0000   0.0000   0.0000   0.0000   0.0000   0.0000   0.0000   0.0000
     0.0000   0.0000   0.0000   0.0000   0.0000   0.0000   0.0000   0.0000
     0.0000   0.0000   0.0000   0.0000   0.0000   0.0000   0.0000   0.0000
     0.0000   0.0000   0.0000   0.0000   0.0000   0.0000   0.0000   0.0000
     0.0000   0.0000   0.0000   0.0000   0.0000   0.0000   0.0000   0.0000
     0.0000   0.0000   0.0000   0.0000   0.0000   0.0000   0.0000   0.0000
     0.0000   0.0000   0.0000   0.0000   0.0000   0.0000   0.0000   0.0000
     0.0000   0.0000   0.0000   0.0000   0.0000   0.0000   0.0000   0.0000
     0.0000   0.0000   0.0000   0.0000   0.0000   0.0000   0.0000   0.0000
     0.0000   0.0000   0.0000   0.0000   0.0000   0.0000   0.0000   0.0000
     0.0000   0.0000   0.0000   0.0000   0.0000   0.0000   0.0000   0.0000
     0.0000   0.0000   0.0000   0.0000   0.0000   0.0000   0.0000   0.0000

          k = 0.1667 0.2887 0.0000 ( 14833 PWs)   bands (ev):

   -66.6656 -40.8851 -40.8419 -40.7191 -19.0545 -18.3564 -11.0232  -9.8221
    -9.7249  -9.2234  -7.9363  -6.9771  -6.7729  -4.0033  -3.3860  -3.2210
    -1.6323   1.2484   1.3670   3.0459   3.3688   3.4650   3.9425   4.2115
     5.6042   5.6725   5.9020   6.4766   6.6711   7.8861   8.6352   9.0021
     9.7021  10.9516  11.6144  11.7477  11.7693  11.9705  12.5202  12.6045
    13.8329  14.0215  14.2073  14.3421  15.0250  15.9790  16.2467  16.7827
    16.7894  17.2202  17.3856  17.7525  18.0732  18.8437  18.9669  19.1383
    20.0311  20.1629  20.5742  20.8657  21.5733  21.7215  21.8965  21.9502
    22.3156  22.5734  22.7313  23.1695  23.5293  23.5408  24.0576  24.0657
    24.5519  24.7868  25.4552  25.6118  25.8358  25.8804  26.1895  27.0326
    27.2895  27.3458  27.6730  27.7392  27.8740  28.5638  29.0630  29.0989
    29.3458  29.3842  29.8297  30.5455  30.7892  30.9869  31.2764  31.4169
    31.6807  31.9693  32.2446  32.4196  32.6183  32.8202  33.0019  33.1315
    33.5452  33.8822  33.9301  34.1103  34.2745  34.7303  35.1910  35.2906
    35.7365  36.0971  36.5085  36.7687  36.8331  36.8809  37.3436  37.6354
    38.0310  38.0899  38.3661  38.4581  38.5912  38.8832  39.2610  39.4656
    39.4810  39.8960  40.3183  40.8412  40.8823  41.3639  41.5270  41.6480
    41.8559  41.9228  42.4829  42.5381  42.6163  42.7183  43.0219  43.5283
    43.7793  43.7822  44.2173  44.3201  44.6041  45.1137  45.2108  45.2167
    45.9009  46.0176  46.0528  46.2783  46.3467  46.6564  46.9583  47.2204
    47.2520  47.7278  48.2104  48.5588  48.6249  48.7956  48.9102  49.1379
    49.4063  49.4783  49.6638  49.9077  50.4260  50.4328  50.7936  50.9753
    51.3070  51.9024  51.9068  52.1200  52.3797  52.6419  52.6841  52.7911
    52.9675  53.1631  53.3476  53.5803  53.9264  54.0437  54.4139  54.5142
    54.6269  54.9025  55.0403  55.5113  55.5422  55.7535  55.7889  56.4081

     occupation numbers 
     1.0000   1.0000   1.0000   1.0000   1.0000   1.0000   1.0000   1.0000
     1.0000   1.0000   1.0000   1.0000   1.0000   0.0000   0.0000   0.0000
     0.0000   0.0000   0.0000   0.0000   0.0000   0.0000   0.0000   0.0000
     0.0000   0.0000   0.0000   0.0000   0.0000   0.0000   0.0000   0.0000
     0.0000   0.0000   0.0000   0.0000   0.0000   0.0000   0.0000   0.0000
     0.0000   0.0000   0.0000   0.0000   0.0000   0.0000   0.0000   0.0000
     0.0000   0.0000   0.0000   0.0000   0.0000   0.0000   0.0000   0.0000
     0.0000   0.0000   0.0000   0.0000   0.0000   0.0000   0.0000   0.0000
     0.0000   0.0000   0.0000   0.0000   0.0000   0.0000   0.0000   0.0000
     0.0000   0.0000   0.0000   0.0000   0.0000   0.0000   0.0000   0.0000
     0.0000   0.0000   0.0000   0.0000   0.0000   0.0000   0.0000   0.0000
     0.0000   0.0000   0.0000   0.0000   0.0000   0.0000   0.0000   0.0000
     0.0000   0.0000   0.0000   0.0000   0.0000   0.0000   0.0000   0.0000
     0.0000   0.0000   0.0000   0.0000   0.0000   0.0000   0.0000   0.0000
     0.0000   0.0000   0.0000   0.0000   0.0000   0.0000   0.0000   0.0000
     0.0000   0.0000   0.0000   0.0000   0.0000   0.0000   0.0000   0.0000
     0.0000   0.0000   0.0000   0.0000   0.0000   0.0000   0.0000   0.0000
     0.0000   0.0000   0.0000   0.0000   0.0000   0.0000   0.0000   0.0000
     0.0000   0.0000   0.0000   0.0000   0.0000   0.0000   0.0000   0.0000
     0.0000   0.0000   0.0000   0.0000   0.0000   0.0000   0.0000   0.0000
     0.0000   0.0000   0.0000   0.0000   0.0000   0.0000   0.0000   0.0000
     0.0000   0.0000   0.0000   0.0000   0.0000   0.0000   0.0000   0.0000
     0.0000   0.0000   0.0000   0.0000   0.0000   0.0000   0.0000   0.0000
     0.0000   0.0000   0.0000   0.0000   0.0000   0.0000   0.0000   0.0000
     0.0000   0.0000   0.0000   0.0000   0.0000   0.0000   0.0000   0.0000

          k = 0.1667 0.4811 0.0000 ( 14782 PWs)   bands (ev):

   -66.6490 -41.0079 -40.8093 -40.7901 -18.1989 -18.0081 -11.4229 -10.9965
    -9.8514  -9.2407  -8.3533  -7.6805  -6.4613  -3.6548  -3.0355  -2.5588
    -1.3848   1.0916   2.7338   2.7406   3.6233   3.8053   4.6007   4.7754
     5.3158   6.0481   6.6742   7.3122   7.5041   7.9857   8.2497   8.6283
     9.4737   9.9205  10.2068  10.5884  10.6924  11.1751  12.1003  12.4830
    12.6875  13.4753  13.8285  14.0503  14.4211  15.1199  15.3137  15.8577
    16.3817  16.8798  17.0714  17.6569  17.7615  18.2714  19.1278  19.2070
    19.6902  19.8369  20.5137  20.6234  20.8883  21.1367  21.5845  22.1507
    22.4730  22.6843  22.9366  23.0179  23.2555  23.5966  23.9217  24.0916
    24.4738  25.5509  25.6968  26.1064  26.2394  26.5177  26.8015  27.0411
    27.2279  27.4370  27.8394  28.2859  28.5979  28.8341  29.2507  29.4473
    29.9258  29.9482  30.4990  30.7459  31.0208  31.3457  31.5764  31.9071
    32.2022  32.5578  32.7730  33.1889  33.6482  33.8329  33.9477  34.1357
    34.5861  34.7585  35.1801  35.4067  35.4705  35.8206  36.1929  36.2421
    36.7501  36.8527  37.0841  37.1063  37.5687  37.6816  38.1274  38.2952
    38.5862  38.8618  38.9084  39.2297  39.2926  39.6087  40.0548  40.0766
    40.2631  40.7711  40.8429  41.0339  41.1855  41.5351  41.7289  42.1762
    42.1864  42.4388  42.5464  42.9380  43.1520  43.3287  43.4563  43.6712
    44.0213  44.3480  44.4833  44.7000  44.8106  45.1782  45.2388  45.4262
    45.6576  45.8658  45.9443  46.1368  46.5803  46.7942  46.8151  46.9721
    47.3384  47.6499  48.2081  48.3222  48.5002  48.6248  49.0244  49.0366
    49.3773  49.4345  49.6519  49.9889  50.0803  50.3786  50.6616  50.8676
    51.0090  51.1075  51.6980  51.6994  51.9471  52.0642  52.3416  52.4367
    52.6247  52.8092  52.9432  53.1919  53.2852  53.7439  53.9360  54.1127
    54.2160  54.4977  54.6450  54.7699  55.0675  55.1230  55.3040  55.4197

     occupation numbers 
     1.0000   1.0000   1.0000   1.0000   1.0000   1.0000   1.0000   1.0000
     1.0000   1.0000   1.0000   1.0000   1.0000   0.0000   0.0000   0.0000
     0.0000   0.0000   0.0000   0.0000   0.0000   0.0000   0.0000   0.0000
     0.0000   0.0000   0.0000   0.0000   0.0000   0.0000   0.0000   0.0000
     0.0000   0.0000   0.0000   0.0000   0.0000   0.0000   0.0000   0.0000
     0.0000   0.0000   0.0000   0.0000   0.0000   0.0000   0.0000   0.0000
     0.0000   0.0000   0.0000   0.0000   0.0000   0.0000   0.0000   0.0000
     0.0000   0.0000   0.0000   0.0000   0.0000   0.0000   0.0000   0.0000
     0.0000   0.0000   0.0000   0.0000   0.0000   0.0000   0.0000   0.0000
     0.0000   0.0000   0.0000   0.0000   0.0000   0.0000   0.0000   0.0000
     0.0000   0.0000   0.0000   0.0000   0.0000   0.0000   0.0000   0.0000
     0.0000   0.0000   0.0000   0.0000   0.0000   0.0000   0.0000   0.0000
     0.0000   0.0000   0.0000   0.0000   0.0000   0.0000   0.0000   0.0000
     0.0000   0.0000   0.0000   0.0000   0.0000   0.0000   0.0000   0.0000
     0.0000   0.0000   0.0000   0.0000   0.0000   0.0000   0.0000   0.0000
     0.0000   0.0000   0.0000   0.0000   0.0000   0.0000   0.0000   0.0000
     0.0000   0.0000   0.0000   0.0000   0.0000   0.0000   0.0000   0.0000
     0.0000   0.0000   0.0000   0.0000   0.0000   0.0000   0.0000   0.0000
     0.0000   0.0000   0.0000   0.0000   0.0000   0.0000   0.0000   0.0000
     0.0000   0.0000   0.0000   0.0000   0.0000   0.0000   0.0000   0.0000
     0.0000   0.0000   0.0000   0.0000   0.0000   0.0000   0.0000   0.0000
     0.0000   0.0000   0.0000   0.0000   0.0000   0.0000   0.0000   0.0000
     0.0000   0.0000   0.0000   0.0000   0.0000   0.0000   0.0000   0.0000
     0.0000   0.0000   0.0000   0.0000   0.0000   0.0000   0.0000   0.0000
     0.0000   0.0000   0.0000   0.0000   0.0000   0.0000   0.0000   0.0000

          k = 0.3333 0.5774 0.0000 ( 14772 PWs)   bands (ev):

   -66.6434 -40.9567 -40.9074 -40.7984 -17.8857 -17.8520 -11.5453 -10.6799
   -10.1581  -9.5376  -8.9048  -8.1349  -5.9734  -4.1909  -2.9039  -2.2691
    -0.8689   1.3160   1.6215   3.6417   4.6096   5.3664   5.6963   5.9392
     6.0191   6.3757   6.9432   7.1905   7.4506   7.4614   7.4759   7.8195
     8.3876   9.1619   9.4288   9.6459   9.8567  10.5271  10.9047  11.6752
    12.5726  12.8038  13.4420  13.4422  13.7571  14.1578  14.5759  15.9784
    17.4330  17.6613  17.8419  17.9704  18.1014  18.9982  19.0134  19.5308
    19.6200  20.0567  20.9256  21.1621  21.3016  21.3994  21.9833  22.0406
    22.3871  22.6147  23.6355  23.6518  23.7729  23.8062  23.9135  25.1980
    25.3853  25.9135  26.4137  26.6092  26.6412  26.8869  27.1676  27.2398
    27.3658  27.7238  27.7847  27.9081  28.6630  28.9876  29.0477  29.0883
    29.3847  29.5750  30.2700  30.3998  30.4800  30.8243  31.0158  31.5893
    31.8833  32.1669  32.4980  32.5252  32.5311  33.0531  33.0878  33.1007
    33.5053  33.5721  34.5222  34.7932  35.0899  35.7550  35.7574  35.9537
    36.6707  36.6862  36.7535  36.8350  37.6662  37.9262  38.3452  38.5192
    38.6400  38.7170  38.9958  39.2330  39.3407  39.4271  39.5225  40.7550
    41.3545  41.7860  41.9974  42.2851  42.5225  42.5934  43.0382  43.0594
    43.4723  43.6959  43.7633  44.1788  44.7780  45.0412  45.3813  45.5617
    45.6062  45.6933  45.7690  45.9204  45.9217  46.0539  46.2980  46.7626
    46.8218  46.9705  46.9780  46.9830  47.1307  47.6192  47.6283  47.8091
    48.0604  48.1494  48.2620  48.3407  48.5175  48.5204  48.7118  48.8259
    49.0351  49.0823  49.5225  49.5963  49.8903  49.9788  50.0936  50.3316
    50.5532  50.6107  50.8475  51.1489  51.2017  51.2983  51.5064  51.7282
    51.7620  52.0205  52.0688  52.5256  52.5403  52.5589  52.9507  52.9924
    53.0300  53.2452  53.3802  53.9232  54.0861  54.3680  54.5279  54.6278

     occupation numbers 
     1.0000   1.0000   1.0000   1.0000   1.0000   1.0000   1.0000   1.0000
     1.0000   1.0000   1.0000   1.0000   1.0000   0.0000   0.0000   0.0000
     0.0000   0.0000   0.0000   0.0000   0.0000   0.0000   0.0000   0.0000
     0.0000   0.0000   0.0000   0.0000   0.0000   0.0000   0.0000   0.0000
     0.0000   0.0000   0.0000   0.0000   0.0000   0.0000   0.0000   0.0000
     0.0000   0.0000   0.0000   0.0000   0.0000   0.0000   0.0000   0.0000
     0.0000   0.0000   0.0000   0.0000   0.0000   0.0000   0.0000   0.0000
     0.0000   0.0000   0.0000   0.0000   0.0000   0.0000   0.0000   0.0000
     0.0000   0.0000   0.0000   0.0000   0.0000   0.0000   0.0000   0.0000
     0.0000   0.0000   0.0000   0.0000   0.0000   0.0000   0.0000   0.0000
     0.0000   0.0000   0.0000   0.0000   0.0000   0.0000   0.0000   0.0000
     0.0000   0.0000   0.0000   0.0000   0.0000   0.0000   0.0000   0.0000
     0.0000   0.0000   0.0000   0.0000   0.0000   0.0000   0.0000   0.0000
     0.0000   0.0000   0.0000   0.0000   0.0000   0.0000   0.0000   0.0000
     0.0000   0.0000   0.0000   0.0000   0.0000   0.0000   0.0000   0.0000
     0.0000   0.0000   0.0000   0.0000   0.0000   0.0000   0.0000   0.0000
     0.0000   0.0000   0.0000   0.0000   0.0000   0.0000   0.0000   0.0000
     0.0000   0.0000   0.0000   0.0000   0.0000   0.0000   0.0000   0.0000
     0.0000   0.0000   0.0000   0.0000   0.0000   0.0000   0.0000   0.0000
     0.0000   0.0000   0.0000   0.0000   0.0000   0.0000   0.0000   0.0000
     0.0000   0.0000   0.0000   0.0000   0.0000   0.0000   0.0000   0.0000
     0.0000   0.0000   0.0000   0.0000   0.0000   0.0000   0.0000   0.0000
     0.0000   0.0000   0.0000   0.0000   0.0000   0.0000   0.0000   0.0000
     0.0000   0.0000   0.0000   0.0000   0.0000   0.0000   0.0000   0.0000
     0.0000   0.0000   0.0000   0.0000   0.0000   0.0000   0.0000   0.0000

     highest occupied, lowest unoccupied level (ev):    -5.9734   -4.1909

     Writing config to output data dir ./_ph0/MoS2.save/ :
     XML data file

     default                                                                    

     bravais-lattice index     =            4
     lattice parameter (alat)  =       5.9477  a.u.
     unit-cell volume          =    1225.4506 (a.u.)^3
     number of atoms/cell      =            3
     number of atomic types    =            2
     kinetic-energy cut-off    =      80.0000  Ry
     charge density cut-off    =     800.0000  Ry
     convergence threshold     =      1.0E-12
     beta                      =       0.1000
     number of iterations used =            4
     Exchange-correlation= PBESOL
                           (   1   4  10   8   0   0   0)


     celldm(1)=    5.94775  celldm(2)=    0.00000  celldm(3)=    6.72523
     celldm(4)=    0.00000  celldm(5)=    0.00000  celldm(6)=    0.00000

     crystal axes: (cart. coord. in units of alat)
               a(1) = (  1.0000  0.0000  0.0000 )  
               a(2) = ( -0.5000  0.8660  0.0000 )  
               a(3) = (  0.0000  0.0000  6.7252 )  

     reciprocal axes: (cart. coord. in units 2 pi/alat)
               b(1) = (  1.0000  0.5774 -0.0000 )  
               b(2) = (  0.0000  1.1547  0.0000 )  
               b(3) = (  0.0000 -0.0000  0.1487 )  


     Atoms inside the unit cell: 

     Cartesian axes

     site n.  atom      mass           positions (alat units)
        1  Mo     95.9500   tau(    1) = (    0.00000    0.57735    0.00000  )
        2  S      32.0650   tau(    2) = (    0.50000    0.28868    0.49450  )
        3  S      32.0650   tau(    3) = (    0.50000    0.28868   -0.49450  )

     Computing dynamical matrix for 
                    q = (   0.0000000   0.0000000   0.0000000 )

     13 Sym.Ops. (with q -> -q+G )

                                    s                        frac. trans.

      isym =  1     identity                                     

 cryst.   s( 1) = (     1          0          0      )
                  (     0          1          0      )
                  (     0          0          1      )

 cart.    s( 1) = (  1.0000000  0.0000000  0.0000000 )
                  (  0.0000000  1.0000000  0.0000000 )
                  (  0.0000000  0.0000000  1.0000000 )


      isym =  2     180 deg rotation - cart. axis [0,1,0]        

 cryst.   s( 2) = (    -1          0          0      )
                  (     1          1          0      )
                  (     0          0         -1      )

 cart.    s( 2) = ( -1.0000000  0.0000000  0.0000000 )
                  (  0.0000000  1.0000000  0.0000000 )
                  (  0.0000000  0.0000000 -1.0000000 )


      isym =  3     120 deg rotation - cryst. axis [0,0,1]       

 cryst.   s( 3) = (     0          1          0      )
                  (    -1         -1          0      )
                  (     0          0          1      )

 cart.    s( 3) = ( -0.5000000 -0.8660254  0.0000000 )
                  (  0.8660254 -0.5000000  0.0000000 )
                  (  0.0000000  0.0000000  1.0000000 )


      isym =  4     120 deg rotation - cryst. axis [0,0,-1]      

 cryst.   s( 4) = (    -1         -1          0      )
                  (     1          0          0      )
                  (     0          0          1      )

 cart.    s( 4) = ( -0.5000000  0.8660254  0.0000000 )
                  ( -0.8660254 -0.5000000  0.0000000 )
                  (  0.0000000  0.0000000  1.0000000 )


      isym =  5     180 deg rotation - cryst. axis [1,-1,0]      

 cryst.   s( 5) = (     0         -1          0      )
                  (    -1          0          0      )
                  (     0          0         -1      )

 cart.    s( 5) = (  0.5000000 -0.8660254  0.0000000 )
                  ( -0.8660254 -0.5000000  0.0000000 )
                  (  0.0000000  0.0000000 -1.0000000 )


      isym =  6     180 deg rotation - cryst. axis [2,1,0]       

 cryst.   s( 6) = (     1          1          0      )
                  (     0         -1          0      )
                  (     0          0         -1      )

 cart.    s( 6) = (  0.5000000  0.8660254  0.0000000 )
                  (  0.8660254 -0.5000000  0.0000000 )
                  (  0.0000000  0.0000000 -1.0000000 )


      isym =  7     inv. 180 deg rotation - cart. axis [0,0,1]   

 cryst.   s( 7) = (     1          0          0      )
                  (     0          1          0      )
                  (     0          0         -1      )

 cart.    s( 7) = (  1.0000000  0.0000000  0.0000000 )
                  (  0.0000000  1.0000000  0.0000000 )
                  (  0.0000000  0.0000000 -1.0000000 )


      isym =  8     inv. 180 deg rotation - cart. axis [1,0,0]   

 cryst.   s( 8) = (    -1          0          0      )
                  (     1          1          0      )
                  (     0          0          1      )

 cart.    s( 8) = ( -1.0000000  0.0000000  0.0000000 )
                  (  0.0000000  1.0000000  0.0000000 )
                  (  0.0000000  0.0000000  1.0000000 )


      isym =  9     inv.  60 deg rotation - cryst. axis [0,0,1]  

 cryst.   s( 9) = (    -1         -1          0      )
                  (     1          0          0      )
                  (     0          0         -1      )

 cart.    s( 9) = ( -0.5000000  0.8660254  0.0000000 )
                  ( -0.8660254 -0.5000000  0.0000000 )
                  (  0.0000000  0.0000000 -1.0000000 )


      isym = 10     inv.  60 deg rotation - cryst. axis [0,0,-1] 

 cryst.   s(10) = (     0          1          0      )
                  (    -1         -1          0      )
                  (     0          0         -1      )

 cart.    s(10) = ( -0.5000000 -0.8660254  0.0000000 )
                  (  0.8660254 -0.5000000  0.0000000 )
                  (  0.0000000  0.0000000 -1.0000000 )


      isym = 11     inv. 180 deg rotation - cryst. axis [0,1,0]  

 cryst.   s(11) = (     1          1          0      )
                  (     0         -1          0      )
                  (     0          0          1      )

 cart.    s(11) = (  0.5000000  0.8660254  0.0000000 )
                  (  0.8660254 -0.5000000  0.0000000 )
                  (  0.0000000  0.0000000  1.0000000 )


      isym = 12     inv. 180 deg rotation - cryst. axis [1,1,0]  

 cryst.   s(12) = (     0         -1          0      )
                  (    -1          0          0      )
                  (     0          0          1      )

 cart.    s(12) = (  0.5000000 -0.8660254  0.0000000 )
                  ( -0.8660254 -0.5000000  0.0000000 )
                  (  0.0000000  0.0000000  1.0000000 )


     This transformation sends q -> -q+G

      isym = 13     identity                                     

 cryst.   s(13) = (     1          0          0      )
                  (     0          1          0      )
                  (     0          0          1      )

 cart.    s(13) = (  1.0000000  0.0000000  0.0000000 )
                  (  0.0000000  1.0000000  0.0000000 )
                  (  0.0000000  0.0000000  1.0000000 )


     G cutoff =  716.8618  (   3653 G-vectors)     FFT grid: ( 54, 54,375)
     G cutoff =  286.7447  (    926 G-vectors)  smooth grid: ( 36, 36,240)
     number of k points=     7
                       cart. coord. in units 2pi/alat
        k(    1) = (   0.0000000   0.0000000   0.0000000), wk =   0.0555556
        k(    2) = (   0.0000000   0.1924501   0.0000000), wk =   0.3333333
        k(    3) = (   0.0000000   0.3849002   0.0000000), wk =   0.3333333
        k(    4) = (   0.0000000  -0.5773503   0.0000000), wk =   0.1666667
        k(    5) = (   0.1666667   0.2886751   0.0000000), wk =   0.3333333
        k(    6) = (   0.1666667   0.4811252   0.0000000), wk =   0.6666667
        k(    7) = (   0.3333333   0.5773503   0.0000000), wk =   0.1111111

                       cryst. coord.
        k(    1) = (   0.0000000   0.0000000   0.0000000), wk =   0.0555556
        k(    2) = (   0.0000000   0.1666667   0.0000000), wk =   0.3333333
        k(    3) = (   0.0000000   0.3333333   0.0000000), wk =   0.3333333
        k(    4) = (   0.0000000  -0.5000000   0.0000000), wk =   0.1666667
        k(    5) = (   0.1666667   0.1666667   0.0000000), wk =   0.3333333
        k(    6) = (   0.1666667   0.3333333   0.0000000), wk =   0.6666667
        k(    7) = (   0.3333333   0.3333333   0.0000000), wk =   0.1111111

     PseudoPot. # 1 for Mo read from file:
     ../pseudo/Mo.pbesol.dojo.upf
     MD5 check sum: c40353276b9086539cda6b9e5a66907b
     Pseudo is Norm-conserving + core correction, Zval = 14.0
     Generated using ONCVPSP code by D. R. Hamann
     Using radial grid of 1640 points,  6 beta functions with: 
                l(1) =   0
                l(2) =   0
                l(3) =   1
                l(4) =   1
                l(5) =   2
                l(6) =   2

     PseudoPot. # 2 for S  read from file:
     ../pseudo/S.pbesol.dojo.upf
     MD5 check sum: 501737efeeef1fb1c631cda521d4e019
     Pseudo is Norm-conserving + core correction, Zval =  6.0
     Generated using ONCVPSP code by D. R. Hamann
     Using radial grid of 1146 points,  6 beta functions with: 
                l(1) =   0
                l(2) =   0
                l(3) =   1
                l(4) =   1
                l(5) =   2
                l(6) =   2

     point group D_3h (-62m)
     there are  6 classes
     the character table:

       E     2C3   3C2   s_h   2S3   3s_v 
A'_1   1.00  1.00  1.00  1.00  1.00  1.00
A'_2   1.00  1.00 -1.00  1.00  1.00 -1.00
E'     2.00 -1.00  0.00  2.00 -1.00  0.00
A''1   1.00  1.00  1.00 -1.00 -1.00 -1.00
A''2   1.00  1.00 -1.00 -1.00 -1.00  1.00
E''    2.00 -1.00  0.00 -2.00  1.00  0.00

     the symmetry operations in each class and the name of the first element:

     E        1
          identity                                               
     2C3      3    4
          120 deg rotation - cryst. axis [0,0,1]                 
     3C2      2    6    5
          180 deg rotation - cart. axis [0,1,0]                  
     s_h      7
          inv. 180 deg rotation - cart. axis [0,0,1]             
     2S3      9   10
          inv.  60 deg rotation - cryst. axis [0,0,1]            
     3s_v     8   11   12
          inv. 180 deg rotation - cart. axis [1,0,0]             


     Atomic displacements:
     There are    6 irreducible representations

     Representation     1      1 modes -  To be done
     Irreps are as follows:

                     mode #   1
                     (  -0.00000  -0.00000   ) 
                     (  -0.00000  -0.00000   ) 
                     (  -0.00000  -0.00000   ) 
                     (  -0.00000  -0.00000   ) 
                     (  -0.00000  -0.00000   ) 
                     (  -0.70711  -0.00000   ) 
                     (  -0.00000  -0.00000   ) 
                     (   0.00000  -0.00000   ) 
                     (   0.70711  -0.00000   ) 

     Representation     2      2 modes -  To be done
     Irreps are as follows:

           mode #   2                           mode #   3
           (  -0.00000  -0.00000   )            (  -0.00000  -0.00000   ) 
           (  -0.00000  -0.00000   )            (  -0.00000  -0.00000   ) 
           (  -0.00000  -0.00000   )            (  -0.00000  -0.00000   ) 
           (  -0.00168  -0.00000   )            (  -0.70710  -0.00000   ) 
           (   0.70710  -0.00000   )            (  -0.00168  -0.00000   ) 
           (   0.00000  -0.00000   )            (  -0.00000  -0.00000   ) 
           (  -0.00168  -0.00000   )            (  -0.70710  -0.00000   ) 
           (   0.70710  -0.00000   )            (  -0.00168  -0.00000   ) 
           (   0.00000  -0.00000   )            (  -0.00000  -0.00000   ) 

     Representation     3      2 modes -  To be done
     Irreps are as follows:

           mode #   4                           mode #   5
           (  -0.00022  -0.00000   )            (  -1.00000  -0.00000   ) 
           (   1.00000  -0.00000   )            (  -0.00022  -0.00000   ) 
           (  -0.00000  -0.00000   )            (  -0.00000   0.00000   ) 
           (  -0.00000  -0.00000   )            (  -0.00000   0.00000   ) 
           (  -0.00000  -0.00000   )            (  -0.00000   0.00000   ) 
           (  -0.00000  -0.00000   )            (  -0.00000   0.00000   ) 
           (  -0.00000  -0.00000   )            (  -0.00000   0.00000   ) 
           (  -0.00000  -0.00000   )            (  -0.00000   0.00000   ) 
           (  -0.00000  -0.00000   )            (  -0.00000   0.00000   ) 

     Representation     4      1 modes -  To be done
     Irreps are as follows:

                     mode #   6
                     (  -0.00000  -0.00000   ) 
                     (  -0.00000  -0.00000   ) 
                     (  -1.00000  -0.00000   ) 
                     (  -0.00000  -0.00000   ) 
                     (  -0.00000  -0.00000   ) 
                     (  -0.00000  -0.00000   ) 
                     (  -0.00000  -0.00000   ) 
                     (  -0.00000  -0.00000   ) 
                     (  -0.00000  -0.00000   ) 

     Representation     5      1 modes -  To be done
     Irreps are as follows:

                     mode #   7
                     (  -0.00000  -0.00000   ) 
                     (  -0.00000  -0.00000   ) 
                     (  -0.00000  -0.00000   ) 
                     (   0.00000  -0.00000   ) 
                     (   0.00000  -0.00000   ) 
                     (  -0.70711  -0.00000   ) 
                     (  -0.00000  -0.00000   ) 
                     (   0.00000  -0.00000   ) 
                     (  -0.70711  -0.00000   ) 

     Representation     6      2 modes -  To be done
     Irreps are as follows:

           mode #   8                           mode #   9
           (  -0.00000  -0.00000   )            (  -0.00000   0.00000   ) 
           (  -0.00000  -0.00000   )            (  -0.00000   0.00000   ) 
           (  -0.00000  -0.00000   )            (  -0.00000   0.00000   ) 
           (  -0.70711  -0.00000   )            (  -0.00012  -0.00000   ) 
           (  -0.00012  -0.00000   )            (   0.70711   0.00000   ) 
           (   0.00000  -0.00000   )            (  -0.00000  -0.00000   ) 
           (   0.70711  -0.00000   )            (   0.00012   0.00000   ) 
           (   0.00012  -0.00000   )            (  -0.70711  -0.00000   ) 
           (  -0.00000  -0.00000   )            (   0.00000   0.00000   ) 


     PHONON       :   1m27.23s CPU   1m39.17s WALL

     Reading dVscf from file MoS2-dvscf1_

     Diagonalizing the dynamical matrix

     q = (    0.000000000   0.000000000   0.000000000 ) 

 **************************************************************************
     freq (    1) =      -2.171875 [THz] =     -72.445936 [cm-1]
     freq (    2) =       1.717107 [THz] =      57.276531 [cm-1]
     freq (    3) =       1.717107 [THz] =      57.276531 [cm-1]
     freq (    4) =       8.479661 [THz] =     282.851058 [cm-1]
     freq (    5) =       8.479661 [THz] =     282.851058 [cm-1]
     freq (    6) =      10.781319 [THz] =     359.626105 [cm-1]
     freq (    7) =      10.781319 [THz] =     359.626105 [cm-1]
     freq (    8) =      11.924199 [THz] =     397.748479 [cm-1]
     freq (    9) =      14.104478 [THz] =     470.474759 [cm-1]
 **************************************************************************
     electron-phonon interaction (to be used in YAMBO)  ...


     Calculation of q =   -0.0000000  -0.1924500   0.0000000

     Parallelization info
     --------------------
     sticks:   dense  smooth     PW     G-vecs:    dense   smooth      PW
     Min          15       6      1                 3641      896     117
     Max          16       7      2                 3678      944     170
     Sum        1945     769    235               468457   118307   19211

     Using Slab Decomposition


     Title: 
     default                                                                    


     bravais-lattice index     =            4
     lattice parameter (alat)  =       5.9477  a.u.
     unit-cell volume          =    1225.4506 (a.u.)^3
     number of atoms/cell      =            3
     number of atomic types    =            2
     number of electrons       =        26.00
     number of Kohn-Sham states=          200
     kinetic-energy cutoff     =      80.0000  Ry
     charge density cutoff     =     800.0000  Ry
     Exchange-correlation= PBESOL
                           (   1   4  10   8   0   0   0)

     celldm(1)=   5.947749  celldm(2)=   0.000000  celldm(3)=   6.725234
     celldm(4)=   0.000000  celldm(5)=   0.000000  celldm(6)=   0.000000

     crystal axes: (cart. coord. in units of alat)
               a(1) = (   1.000000   0.000000   0.000000 )  
               a(2) = (  -0.500000   0.866025   0.000000 )  
               a(3) = (   0.000000   0.000000   6.725234 )  

     reciprocal axes: (cart. coord. in units 2 pi/alat)
               b(1) = (  1.000000  0.577350 -0.000000 )  
               b(2) = (  0.000000  1.154701  0.000000 )  
               b(3) = (  0.000000 -0.000000  0.148694 )  


     PseudoPot. # 1 for Mo read from file:
     ../pseudo/Mo.pbesol.dojo.upf
     MD5 check sum: c40353276b9086539cda6b9e5a66907b
     Pseudo is Norm-conserving + core correction, Zval = 14.0
     Generated using ONCVPSP code by D. R. Hamann
     Using radial grid of 1640 points,  6 beta functions with: 
                l(1) =   0
                l(2) =   0
                l(3) =   1
                l(4) =   1
                l(5) =   2
                l(6) =   2

     PseudoPot. # 2 for S  read from file:
     ../pseudo/S.pbesol.dojo.upf
     MD5 check sum: 501737efeeef1fb1c631cda521d4e019
     Pseudo is Norm-conserving + core correction, Zval =  6.0
     Generated using ONCVPSP code by D. R. Hamann
     Using radial grid of 1146 points,  6 beta functions with: 
                l(1) =   0
                l(2) =   0
                l(3) =   1
                l(4) =   1
                l(5) =   2
                l(6) =   2

     atomic species   valence    mass     pseudopotential
     Mo               14.00    95.95000     Mo( 1.00)
     S                 6.00    32.06500     S ( 1.00)

     12 Sym. Ops. (no inversion) found


                                    s                        frac. trans.

      isym =  1     identity                                     

 cryst.   s( 1) = (     1          0          0      )
                  (     0          1          0      )
                  (     0          0          1      )

 cart.    s( 1) = (  1.0000000 -0.0000000  0.0000000 )
                  (  0.0000000  1.0000000  0.0000000 )
                  (  0.0000000  0.0000000  1.0000000 )


      isym =  2     180 deg rotation - cart. axis [0,1,0]        

 cryst.   s( 2) = (    -1          0          0      )
                  (     1          1          0      )
                  (     0          0         -1      )

 cart.    s( 2) = ( -1.0000000  0.0000000  0.0000000 )
                  (  0.0000000  1.0000000  0.0000000 )
                  (  0.0000000  0.0000000 -1.0000000 )


      isym =  3     inv. 180 deg rotation - cart. axis [0,0,1]   

 cryst.   s( 3) = (     1          0          0      )
                  (     0          1          0      )
                  (     0          0         -1      )

 cart.    s( 3) = (  1.0000000 -0.0000000  0.0000000 )
                  (  0.0000000  1.0000000  0.0000000 )
                  (  0.0000000  0.0000000 -1.0000000 )


      isym =  4     inv. 180 deg rotation - cart. axis [1,0,0]   

 cryst.   s( 4) = (    -1          0          0      )
                  (     1          1          0      )
                  (     0          0          1      )

 cart.    s( 4) = ( -1.0000000  0.0000000  0.0000000 )
                  (  0.0000000  1.0000000  0.0000000 )
                  (  0.0000000  0.0000000  1.0000000 )


      isym =  5     180 deg rotation - cryst. axis [1,-1,0]      

 cryst.   s( 5) = (     0         -1          0      )
                  (    -1          0          0      )
                  (     0          0         -1      )

 cart.    s( 5) = (  0.5000000 -0.8660254  0.0000000 )
                  ( -0.8660254 -0.5000000  0.0000000 )
                  (  0.0000000  0.0000000 -1.0000000 )


      isym =  6     180 deg rotation - cryst. axis [2,1,0]       

 cryst.   s( 6) = (     1          1          0      )
                  (     0         -1          0      )
                  (     0          0         -1      )

 cart.    s( 6) = (  0.5000000  0.8660254  0.0000000 )
                  (  0.8660254 -0.5000000  0.0000000 )
                  (  0.0000000  0.0000000 -1.0000000 )


      isym =  7     120 deg rotation - cryst. axis [0,0,1]       

 cryst.   s( 7) = (     0          1          0      )
                  (    -1         -1          0      )
                  (     0          0          1      )

 cart.    s( 7) = ( -0.5000000 -0.8660254  0.0000000 )
                  (  0.8660254 -0.5000000  0.0000000 )
                  (  0.0000000  0.0000000  1.0000000 )


      isym =  8     120 deg rotation - cryst. axis [0,0,-1]      

 cryst.   s( 8) = (    -1         -1          0      )
                  (     1          0          0      )
                  (     0          0          1      )

 cart.    s( 8) = ( -0.5000000  0.8660254  0.0000000 )
                  ( -0.8660254 -0.5000000  0.0000000 )
                  (  0.0000000  0.0000000  1.0000000 )


      isym =  9     inv.  60 deg rotation - cryst. axis [0,0,1]  

 cryst.   s( 9) = (    -1         -1          0      )
                  (     1          0          0      )
                  (     0          0         -1      )

 cart.    s( 9) = ( -0.5000000  0.8660254  0.0000000 )
                  ( -0.8660254 -0.5000000  0.0000000 )
                  (  0.0000000  0.0000000 -1.0000000 )


      isym = 10     inv.  60 deg rotation - cryst. axis [0,0,-1] 

 cryst.   s(10) = (     0          1          0      )
                  (    -1         -1          0      )
                  (     0          0         -1      )

 cart.    s(10) = ( -0.5000000 -0.8660254  0.0000000 )
                  (  0.8660254 -0.5000000  0.0000000 )
                  (  0.0000000  0.0000000 -1.0000000 )


      isym = 11     inv. 180 deg rotation - cryst. axis [0,1,0]  

 cryst.   s(11) = (     1          1          0      )
                  (     0         -1          0      )
                  (     0          0          1      )

 cart.    s(11) = (  0.5000000  0.8660254  0.0000000 )
                  (  0.8660254 -0.5000000  0.0000000 )
                  (  0.0000000  0.0000000  1.0000000 )


      isym = 12     inv. 180 deg rotation - cryst. axis [1,1,0]  

 cryst.   s(12) = (     0         -1          0      )
                  (    -1          0          0      )
                  (     0          0          1      )

 cart.    s(12) = (  0.5000000 -0.8660254  0.0000000 )
                  ( -0.8660254 -0.5000000  0.0000000 )
                  (  0.0000000  0.0000000  1.0000000 )


     point group D_3h (-62m)
     there are  6 classes
     the character table:

       E     2C3   3C2   s_h   2S3   3s_v 
A'_1   1.00  1.00  1.00  1.00  1.00  1.00
A'_2   1.00  1.00 -1.00  1.00  1.00 -1.00
E'     2.00 -1.00  0.00  2.00 -1.00  0.00
A''1   1.00  1.00  1.00 -1.00 -1.00 -1.00
A''2   1.00  1.00 -1.00 -1.00 -1.00  1.00
E''    2.00 -1.00  0.00 -2.00  1.00  0.00

     the symmetry operations in each class and the name of the first element:

     E        1
          identity                                               
     2C3      7    8
          120 deg rotation - cryst. axis [0,0,1]                 
     3C2      2    6    5
          180 deg rotation - cart. axis [0,1,0]                  
     s_h      3
          inv. 180 deg rotation - cart. axis [0,0,1]             
     2S3      9   10
          inv.  60 deg rotation - cryst. axis [0,0,1]            
     3s_v     4   11   12
          inv. 180 deg rotation - cart. axis [1,0,0]             

   Cartesian axes

     site n.     atom                  positions (alat units)
         1        Mo     tau(   1) = (   0.0000000   0.5773503   0.0000000  )
         2        S      tau(   2) = (   0.5000000   0.2886751   0.4945030  )
         3        S      tau(   3) = (   0.5000000   0.2886751  -0.4945030  )

   Crystallographic axes

     site n.     atom                  positions (cryst. coord.)
         1        Mo     tau(   1) = (  0.3333333  0.6666667  0.0000000  )
         2        S      tau(   2) = (  0.6666667  0.3333333  0.0735295  )
         3        S      tau(   3) = (  0.6666667  0.3333333 -0.0735295  )

     number of k points=    42
                       cart. coord. in units 2pi/alat
        k(    1) = (   0.0000000   0.0000000   0.0000000), wk =   0.0555556
        k(    2) = (  -0.0000000  -0.1924500   0.0000000), wk =   0.0000000
        k(    3) = (   0.0000000   0.1924501   0.0000000), wk =   0.0555556
        k(    4) = (  -0.0000000   0.0000001   0.0000000), wk =   0.0000000
        k(    5) = (   0.0000000   0.3849002   0.0000000), wk =   0.0555556
        k(    6) = (  -0.0000000   0.1924502   0.0000000), wk =   0.0000000
        k(    7) = (   0.0000000  -0.5773503   0.0000000), wk =   0.0555556
        k(    8) = (  -0.0000000  -0.7698003   0.0000000), wk =   0.0000000
        k(    9) = (   0.1666667   0.2886751   0.0000000), wk =   0.1111111
        k(   10) = (   0.1666667   0.0962251   0.0000000), wk =   0.0000000
        k(   11) = (   0.1666667   0.4811252   0.0000000), wk =   0.1111111
        k(   12) = (   0.1666667   0.2886752   0.0000000), wk =   0.0000000
        k(   13) = (   0.3333333   0.5773503   0.0000000), wk =   0.1111111
        k(   14) = (   0.3333333   0.3849003   0.0000000), wk =   0.0000000
        k(   15) = (  -0.1666667  -0.0962250   0.0000000), wk =   0.1111111
        k(   16) = (  -0.1666667  -0.2886750   0.0000000), wk =   0.0000000
        k(   17) = (   0.0000000  -0.1924501   0.0000000), wk =   0.0555556
        k(   18) = (  -0.0000000  -0.3849001   0.0000000), wk =   0.0000000
        k(   19) = (  -0.1666667   0.0962250   0.0000000), wk =   0.1111111
        k(   20) = (  -0.1666667  -0.0962250   0.0000000), wk =   0.0000000
        k(   21) = (  -0.3333333  -0.1924501   0.0000000), wk =   0.1111111
        k(   22) = (  -0.3333333  -0.3849001   0.0000000), wk =   0.0000000
        k(   23) = (   0.0000000  -0.3849002   0.0000000), wk =   0.0555556
        k(   24) = (  -0.0000000  -0.5773502   0.0000000), wk =   0.0000000
        k(   25) = (  -0.3333333   0.1924501   0.0000000), wk =   0.1111111
        k(   26) = (  -0.3333333   0.0000001   0.0000000), wk =   0.0000000
        k(   27) = (   0.5000000   0.2886751   0.0000000), wk =   0.1111111
        k(   28) = (   0.5000000   0.0962251   0.0000000), wk =   0.0000000
        k(   29) = (  -0.1666667  -0.2886751   0.0000000), wk =   0.1111111
        k(   30) = (  -0.1666667  -0.4811251   0.0000000), wk =   0.0000000
        k(   31) = (   0.3333333  -0.0000000   0.0000000), wk =   0.1111111
        k(   32) = (   0.3333333  -0.1924500   0.0000000), wk =   0.0000000
        k(   33) = (  -0.3333333  -0.3849002   0.0000000), wk =   0.1111111
        k(   34) = (  -0.3333333  -0.5773502   0.0000000), wk =   0.0000000
        k(   35) = (   0.5000000  -0.0962250   0.0000000), wk =   0.1111111
        k(   36) = (   0.5000000  -0.2886750   0.0000000), wk =   0.0000000
        k(   37) = (  -0.1666667  -0.4811252   0.0000000), wk =   0.1111111
        k(   38) = (  -0.1666667  -0.6735752   0.0000000), wk =   0.0000000
        k(   39) = (  -0.3333333   0.3849002   0.0000000), wk =   0.1111111
        k(   40) = (  -0.3333333   0.1924502   0.0000000), wk =   0.0000000
        k(   41) = (   0.5000000   0.0962250   0.0000000), wk =   0.1111111
        k(   42) = (   0.5000000  -0.0962250   0.0000000), wk =   0.0000000

                       cryst. coord.
        k(    1) = (   0.0000000   0.0000000   0.0000000), wk =   0.0555556
        k(    2) = (  -0.0000000  -0.1666666   0.0000000), wk =   0.0000000
        k(    3) = (   0.0000000   0.1666667   0.0000000), wk =   0.0555556
        k(    4) = (  -0.0000000   0.0000001   0.0000000), wk =   0.0000000
        k(    5) = (   0.0000000   0.3333333   0.0000000), wk =   0.0555556
        k(    6) = (  -0.0000000   0.1666667   0.0000000), wk =   0.0000000
        k(    7) = (   0.0000000  -0.5000000   0.0000000), wk =   0.0555556
        k(    8) = (  -0.0000000  -0.6666666   0.0000000), wk =   0.0000000
        k(    9) = (   0.1666667   0.1666667   0.0000000), wk =   0.1111111
        k(   10) = (   0.1666667   0.0000001   0.0000000), wk =   0.0000000
        k(   11) = (   0.1666667   0.3333333   0.0000000), wk =   0.1111111
        k(   12) = (   0.1666667   0.1666667   0.0000000), wk =   0.0000000
        k(   13) = (   0.3333333   0.3333333   0.0000000), wk =   0.1111111
        k(   14) = (   0.3333333   0.1666667   0.0000000), wk =   0.0000000
        k(   15) = (  -0.1666667   0.0000000   0.0000000), wk =   0.1111111
        k(   16) = (  -0.1666667  -0.1666666   0.0000000), wk =   0.0000000
        k(   17) = (   0.0000000  -0.1666667   0.0000000), wk =   0.0555556
        k(   18) = (  -0.0000000  -0.3333333   0.0000000), wk =   0.0000000
        k(   19) = (  -0.1666667   0.1666667   0.0000000), wk =   0.1111111
        k(   20) = (  -0.1666667   0.0000001   0.0000000), wk =   0.0000000
        k(   21) = (  -0.3333333   0.0000000   0.0000000), wk =   0.1111111
        k(   22) = (  -0.3333333  -0.1666666   0.0000000), wk =   0.0000000
        k(   23) = (   0.0000000  -0.3333333   0.0000000), wk =   0.0555556
        k(   24) = (  -0.0000000  -0.4999999   0.0000000), wk =   0.0000000
        k(   25) = (  -0.3333333   0.3333333   0.0000000), wk =   0.1111111
        k(   26) = (  -0.3333333   0.1666667   0.0000000), wk =   0.0000000
        k(   27) = (   0.5000000   0.0000000   0.0000000), wk =   0.1111111
        k(   28) = (   0.5000000  -0.1666666   0.0000000), wk =   0.0000000
        k(   29) = (  -0.1666667  -0.1666667   0.0000000), wk =   0.1111111
        k(   30) = (  -0.1666667  -0.3333333   0.0000000), wk =   0.0000000
        k(   31) = (   0.3333333  -0.1666667   0.0000000), wk =   0.1111111
        k(   32) = (   0.3333333  -0.3333333   0.0000000), wk =   0.0000000
        k(   33) = (  -0.3333333  -0.1666667   0.0000000), wk =   0.1111111
        k(   34) = (  -0.3333333  -0.3333333   0.0000000), wk =   0.0000000
        k(   35) = (   0.5000000  -0.3333333   0.0000000), wk =   0.1111111
        k(   36) = (   0.5000000  -0.4999999   0.0000000), wk =   0.0000000
        k(   37) = (  -0.1666667  -0.3333333   0.0000000), wk =   0.1111111
        k(   38) = (  -0.1666667  -0.4999999   0.0000000), wk =   0.0000000
        k(   39) = (  -0.3333333   0.5000000   0.0000000), wk =   0.1111111
        k(   40) = (  -0.3333333   0.3333334   0.0000000), wk =   0.0000000
        k(   41) = (   0.5000000  -0.1666667   0.0000000), wk =   0.1111111
        k(   42) = (   0.5000000  -0.3333333   0.0000000), wk =   0.0000000

     Dense  grid:   468457 G-vectors     FFT dimensions: (  54,  54, 375)

     Smooth grid:   118307 G-vectors     FFT dimensions: (  36,  36, 240)

     Dynamical RAM for                 wfc:       0.35 MB

     Dynamical RAM for     wfc (w. buffer):       0.35 MB

     Dynamical RAM for           str. fact:       0.11 MB

     Dynamical RAM for           local pot:       0.03 MB

     Dynamical RAM for          nlocal pot:       0.09 MB

     Dynamical RAM for                qrad:       4.57 MB

     Dynamical RAM for          rho,v,vnew:       0.37 MB

     Dynamical RAM for           G-vectors:       0.22 MB

     Dynamical RAM for          h,s,v(r/c):       7.32 MB

     Dynamical RAM for          <psi|beta>:       0.16 MB

     Dynamical RAM for                 psi:       1.40 MB

     Dynamical RAM for                hpsi:       1.40 MB

     Dynamical RAM for      wfcinit/wfcrot:       1.62 MB

     Estimated static dynamical RAM per process >       6.24 MB

     Estimated max dynamical RAM per process >      16.54 MB

     Estimated total dynamical RAM >       2.07 GB
 ----2D----2D----2D----2D----2D----2D----2D----2D----2D----2D----2D----2D
  The code is running with the 2D cutoff
  Please refer to:
  Sohier, T., Calandra, M., & Mauri, F. (2017), 
  Density functional perturbation theory for gated two-dimensional heterostructures:
  Theoretical developments and application to flexural phonons in graphene.
  Physical Review B, 96(7), 75448. https://doi.org/10.1103/PhysRevB.96.075448
 ----2D----2D----2D----2D----2D----2D----2D----2D----2D----2D----2D----2D

     The potential is recalculated from file :
     ./_ph0/MoS2.save/charge-density

     Starting wfcs are   18 atomic +  182 random wfcs

     Band Structure Calculation
     Davidson diagonalization with overlap

     Computing kpt #:     1
     total cpu time spent up to now is       93.9 secs

     Computing kpt #:     2
     total cpu time spent up to now is      104.6 secs

     Computing kpt #:     3
     total cpu time spent up to now is      114.5 secs

     Computing kpt #:     4
     total cpu time spent up to now is      126.4 secs

     Computing kpt #:     5
     total cpu time spent up to now is      135.7 secs

     Computing kpt #:     6
     total cpu time spent up to now is      145.5 secs

     Computing kpt #:     7
     total cpu time spent up to now is      156.4 secs

     Computing kpt #:     8
     total cpu time spent up to now is      166.3 secs

     Computing kpt #:     9
     total cpu time spent up to now is      176.6 secs

     Computing kpt #:    10
     total cpu time spent up to now is      186.6 secs

     Computing kpt #:    11
     total cpu time spent up to now is      196.8 secs

     Computing kpt #:    12
     total cpu time spent up to now is      207.3 secs

     Computing kpt #:    13
     total cpu time spent up to now is      218.3 secs

     Computing kpt #:    14
     total cpu time spent up to now is      229.2 secs

     Computing kpt #:    15
     total cpu time spent up to now is      238.7 secs

     Computing kpt #:    16
     total cpu time spent up to now is      248.8 secs

     Computing kpt #:    17
     total cpu time spent up to now is      258.9 secs

     Computing kpt #:    18
     total cpu time spent up to now is      269.3 secs

     Computing kpt #:    19
     total cpu time spent up to now is      278.8 secs

     Computing kpt #:    20
     total cpu time spent up to now is      288.6 secs

     Computing kpt #:    21
     total cpu time spent up to now is      298.8 secs

     Computing kpt #:    22
     total cpu time spent up to now is      308.7 secs

     Computing kpt #:    23
     total cpu time spent up to now is      318.7 secs

     Computing kpt #:    24
     total cpu time spent up to now is      328.5 secs

     Computing kpt #:    25
     total cpu time spent up to now is      338.4 secs

     Computing kpt #:    26
     total cpu time spent up to now is      349.9 secs

     Computing kpt #:    27
     total cpu time spent up to now is      359.8 secs

     Computing kpt #:    28
     total cpu time spent up to now is      370.6 secs

     Computing kpt #:    29
     total cpu time spent up to now is      381.7 secs

     Computing kpt #:    30
     total cpu time spent up to now is      392.1 secs

     Computing kpt #:    31
     total cpu time spent up to now is      402.3 secs

     Computing kpt #:    32
     total cpu time spent up to now is      412.2 secs

     Computing kpt #:    33
     total cpu time spent up to now is      422.6 secs

     Computing kpt #:    34
     total cpu time spent up to now is      432.3 secs

     Computing kpt #:    35
     total cpu time spent up to now is      442.3 secs

     Computing kpt #:    36
     total cpu time spent up to now is      453.0 secs

     Computing kpt #:    37
     total cpu time spent up to now is      463.1 secs

     Computing kpt #:    38
     total cpu time spent up to now is      473.2 secs

     Computing kpt #:    39
     total cpu time spent up to now is      483.3 secs

     Computing kpt #:    40
     total cpu time spent up to now is      493.0 secs

     Computing kpt #:    41
     total cpu time spent up to now is      503.0 secs

     Computing kpt #:    42
     total cpu time spent up to now is      513.1 secs

     ethr =  3.85E-11,  avg # of iterations = 19.3

     total cpu time spent up to now is      513.1 secs

     End of band structure calculation

          k = 0.0000 0.0000 0.0000 ( 14903 PWs)   bands (ev):

   -66.6931 -40.8960 -40.6372 -40.6372 -20.1785 -18.8130 -11.7262  -8.6012
[...]
                     (  -0.00000   0.00000   ) 
                     (   0.70711   0.00000   ) 
                     (  -0.00000  -0.00000   ) 
                     (   0.00000  -0.00000   ) 

     Representation     5      1 modes -  To be done
     Irreps are as follows:

                     mode #   5
                     (  -0.00000  -0.00000   ) 
                     (  -0.00000  -0.00000   ) 
                     (  -0.00000  -0.00000   ) 
                     (  -0.70711   0.00000   ) 
                     (   0.00000   0.00000   ) 
                     (  -0.00000   0.00000   ) 
                     (  -0.70711  -0.00000   ) 
                     (   0.00000   0.00000   ) 
                     (   0.00000   0.00000   ) 

     Representation     6      1 modes -  To be done
     Irreps are as follows:

                     mode #   6
                     (  -1.00000  -0.00000   ) 
                     (  -0.00000  -0.00000   ) 
                     (  -0.00000  -0.00000   ) 
                     (  -0.00000  -0.00000   ) 
                     (  -0.00000  -0.00000   ) 
                     (  -0.00000  -0.00000   ) 
                     (  -0.00000  -0.00000   ) 
                     (  -0.00000  -0.00000   ) 
                     (  -0.00000  -0.00000   ) 

     Representation     7      1 modes -  To be done
     Irreps are as follows:

                     mode #   7
                     (  -0.00000   0.00000   ) 
                     (  -0.00000   0.00000   ) 
                     (  -0.00000   0.00000   ) 
                     (   0.00000   0.00000   ) 
                     (  -0.31120   0.00000   ) 
                     (   0.31003   0.55411   ) 
                     (   0.00000   0.00000   ) 
                     (   0.31120   0.00000   ) 
                     (   0.31003   0.55411   ) 

     Representation     8      1 modes -  To be done
     Irreps are as follows:

                     mode #   8
                     (  -0.00000  -0.00000   ) 
                     (  -0.00000  -0.00000   ) 
                     (  -1.00000  -0.00000   ) 
                     (  -0.00000  -0.00000   ) 
                     (  -0.00000  -0.00000   ) 
                     (  -0.00000  -0.00000   ) 
                     (  -0.00000  -0.00000   ) 
                     (  -0.00000  -0.00000   ) 
                     (  -0.00000  -0.00000   ) 

     Representation     9      1 modes -  To be done
     Irreps are as follows:

                     mode #   9
                     (  -0.00000  -0.00000   ) 
                     (  -0.00000  -0.00000   ) 
                     (  -0.00000  -0.00000   ) 
                     (  -0.00000   0.00000   ) 
                     (  -0.63495   0.00000   ) 
                     (  -0.15195  -0.27158   ) 
                     (  -0.00000   0.00000   ) 
                     (   0.63495   0.00000   ) 
                     (  -0.15195  -0.27158   ) 


     PHONON       :  16m43.29s CPU  17m 4.94s WALL

     Reading dVscf from file MoS2-dvscf3_

     Diagonalizing the dynamical matrix

     q = (   -0.000000006  -0.384900000   0.000000000 ) 

 **************************************************************************
     freq (    1) =       3.659657 [THz] =     122.073010 [cm-1]
     freq (    2) =       3.743020 [THz] =     124.853712 [cm-1]
     freq (    3) =       6.408964 [THz] =     213.780015 [cm-1]
     freq (    4) =       8.736488 [THz] =     291.417863 [cm-1]
     freq (    5) =       9.888362 [THz] =     329.840269 [cm-1]
     freq (    6) =      10.415142 [THz] =     347.411746 [cm-1]
     freq (    7) =      11.101481 [THz] =     370.305533 [cm-1]
     freq (    8) =      11.992724 [THz] =     400.034199 [cm-1]
     freq (    9) =      12.282232 [THz] =     409.691165 [cm-1]
 **************************************************************************
     electron-phonon interaction (to be used in YAMBO)  ...


     Calculation of q =    0.0000000   0.5773500   0.0000000

     Parallelization info
     --------------------
     sticks:   dense  smooth     PW     G-vecs:    dense   smooth      PW
     Min          15       6      1                 3641      896     129
     Max          16       7      2                 3678      944     188
     Sum        1945     769    253               468457   118307   22139

     Using Slab Decomposition


     Title: 
     default                                                                    


     bravais-lattice index     =            4
     lattice parameter (alat)  =       5.9477  a.u.
     unit-cell volume          =    1225.4506 (a.u.)^3
     number of atoms/cell      =            3
     number of atomic types    =            2
     number of electrons       =        26.00
     number of Kohn-Sham states=          200
     kinetic-energy cutoff     =      80.0000  Ry
     charge density cutoff     =     800.0000  Ry
     Exchange-correlation= PBESOL
                           (   1   4  10   8   0   0   0)

     celldm(1)=   5.947749  celldm(2)=   0.000000  celldm(3)=   6.725234
     celldm(4)=   0.000000  celldm(5)=   0.000000  celldm(6)=   0.000000

     crystal axes: (cart. coord. in units of alat)
               a(1) = (   1.000000   0.000000   0.000000 )  
               a(2) = (  -0.500000   0.866025   0.000000 )  
               a(3) = (   0.000000   0.000000   6.725234 )  

     reciprocal axes: (cart. coord. in units 2 pi/alat)
               b(1) = (  1.000000  0.577350 -0.000000 )  
               b(2) = (  0.000000  1.154701  0.000000 )  
               b(3) = (  0.000000 -0.000000  0.148694 )  


     PseudoPot. # 1 for Mo read from file:
     ../pseudo/Mo.pbesol.dojo.upf
     MD5 check sum: c40353276b9086539cda6b9e5a66907b
     Pseudo is Norm-conserving + core correction, Zval = 14.0
     Generated using ONCVPSP code by D. R. Hamann
     Using radial grid of 1640 points,  6 beta functions with: 
                l(1) =   0
                l(2) =   0
                l(3) =   1
                l(4) =   1
                l(5) =   2
                l(6) =   2

     PseudoPot. # 2 for S  read from file:
     ../pseudo/S.pbesol.dojo.upf
     MD5 check sum: 501737efeeef1fb1c631cda521d4e019
     Pseudo is Norm-conserving + core correction, Zval =  6.0
     Generated using ONCVPSP code by D. R. Hamann
     Using radial grid of 1146 points,  6 beta functions with: 
                l(1) =   0
                l(2) =   0
                l(3) =   1
                l(4) =   1
                l(5) =   2
                l(6) =   2

     atomic species   valence    mass     pseudopotential
     Mo               14.00    95.95000     Mo( 1.00)
     S                 6.00    32.06500     S ( 1.00)

     12 Sym. Ops. (no inversion) found


                                    s                        frac. trans.

      isym =  1     identity                                     

 cryst.   s( 1) = (     1          0          0      )
                  (     0          1          0      )
                  (     0          0          1      )

 cart.    s( 1) = (  1.0000000 -0.0000000  0.0000000 )
                  (  0.0000000  1.0000000  0.0000000 )
                  (  0.0000000  0.0000000  1.0000000 )


      isym =  2     180 deg rotation - cart. axis [0,1,0]        

 cryst.   s( 2) = (    -1          0          0      )
                  (     1          1          0      )
                  (     0          0         -1      )

 cart.    s( 2) = ( -1.0000000  0.0000000  0.0000000 )
                  (  0.0000000  1.0000000  0.0000000 )
                  (  0.0000000  0.0000000 -1.0000000 )


      isym =  3     inv. 180 deg rotation - cart. axis [0,0,1]   

 cryst.   s( 3) = (     1          0          0      )
                  (     0          1          0      )
                  (     0          0         -1      )

 cart.    s( 3) = (  1.0000000 -0.0000000  0.0000000 )
                  (  0.0000000  1.0000000  0.0000000 )
                  (  0.0000000  0.0000000 -1.0000000 )


      isym =  4     inv. 180 deg rotation - cart. axis [1,0,0]   

 cryst.   s( 4) = (    -1          0          0      )
                  (     1          1          0      )
                  (     0          0          1      )

 cart.    s( 4) = ( -1.0000000  0.0000000  0.0000000 )
                  (  0.0000000  1.0000000  0.0000000 )
                  (  0.0000000  0.0000000  1.0000000 )


      isym =  5     180 deg rotation - cryst. axis [1,-1,0]      

 cryst.   s( 5) = (     0         -1          0      )
                  (    -1          0          0      )
                  (     0          0         -1      )

 cart.    s( 5) = (  0.5000000 -0.8660254  0.0000000 )
                  ( -0.8660254 -0.5000000  0.0000000 )
                  (  0.0000000  0.0000000 -1.0000000 )


      isym =  6     180 deg rotation - cryst. axis [2,1,0]       

 cryst.   s( 6) = (     1          1          0      )
                  (     0         -1          0      )
                  (     0          0         -1      )

 cart.    s( 6) = (  0.5000000  0.8660254  0.0000000 )
                  (  0.8660254 -0.5000000  0.0000000 )
                  (  0.0000000  0.0000000 -1.0000000 )


      isym =  7     120 deg rotation - cryst. axis [0,0,1]       

 cryst.   s( 7) = (     0          1          0      )
                  (    -1         -1          0      )
                  (     0          0          1      )

 cart.    s( 7) = ( -0.5000000 -0.8660254  0.0000000 )
                  (  0.8660254 -0.5000000  0.0000000 )
                  (  0.0000000  0.0000000  1.0000000 )


      isym =  8     120 deg rotation - cryst. axis [0,0,-1]      

 cryst.   s( 8) = (    -1         -1          0      )
                  (     1          0          0      )
                  (     0          0          1      )

 cart.    s( 8) = ( -0.5000000  0.8660254  0.0000000 )
                  ( -0.8660254 -0.5000000  0.0000000 )
                  (  0.0000000  0.0000000  1.0000000 )


      isym =  9     inv.  60 deg rotation - cryst. axis [0,0,1]  

 cryst.   s( 9) = (    -1         -1          0      )
                  (     1          0          0      )
                  (     0          0         -1      )

 cart.    s( 9) = ( -0.5000000  0.8660254  0.0000000 )
                  ( -0.8660254 -0.5000000  0.0000000 )
                  (  0.0000000  0.0000000 -1.0000000 )


      isym = 10     inv.  60 deg rotation - cryst. axis [0,0,-1] 

 cryst.   s(10) = (     0          1          0      )
                  (    -1         -1          0      )
                  (     0          0         -1      )

 cart.    s(10) = ( -0.5000000 -0.8660254  0.0000000 )
                  (  0.8660254 -0.5000000  0.0000000 )
                  (  0.0000000  0.0000000 -1.0000000 )


      isym = 11     inv. 180 deg rotation - cryst. axis [0,1,0]  

 cryst.   s(11) = (     1          1          0      )
                  (     0         -1          0      )
                  (     0          0          1      )

 cart.    s(11) = (  0.5000000  0.8660254  0.0000000 )
                  (  0.8660254 -0.5000000  0.0000000 )
                  (  0.0000000  0.0000000  1.0000000 )


      isym = 12     inv. 180 deg rotation - cryst. axis [1,1,0]  

 cryst.   s(12) = (     0         -1          0      )
                  (    -1          0          0      )
                  (     0          0          1      )

 cart.    s(12) = (  0.5000000 -0.8660254  0.0000000 )
                  ( -0.8660254 -0.5000000  0.0000000 )
                  (  0.0000000  0.0000000  1.0000000 )


     point group D_3h (-62m)
     there are  6 classes
     the character table:

       E     2C3   3C2   s_h   2S3   3s_v 
A'_1   1.00  1.00  1.00  1.00  1.00  1.00
A'_2   1.00  1.00 -1.00  1.00  1.00 -1.00
E'     2.00 -1.00  0.00  2.00 -1.00  0.00
A''1   1.00  1.00  1.00 -1.00 -1.00 -1.00
A''2   1.00  1.00 -1.00 -1.00 -1.00  1.00
E''    2.00 -1.00  0.00 -2.00  1.00  0.00

     the symmetry operations in each class and the name of the first element:

     E        1
          identity                                               
     2C3      7    8
          120 deg rotation - cryst. axis [0,0,1]                 
     3C2      2    6    5
          180 deg rotation - cart. axis [0,1,0]                  
     s_h      3
          inv. 180 deg rotation - cart. axis [0,0,1]             
     2S3      9   10
          inv.  60 deg rotation - cryst. axis [0,0,1]            
     3s_v     4   11   12
          inv. 180 deg rotation - cart. axis [1,0,0]             

   Cartesian axes

     site n.     atom                  positions (alat units)
         1        Mo     tau(   1) = (   0.0000000   0.5773503   0.0000000  )
         2        S      tau(   2) = (   0.5000000   0.2886751   0.4945030  )
         3        S      tau(   3) = (   0.5000000   0.2886751  -0.4945030  )

   Crystallographic axes

     site n.     atom                  positions (cryst. coord.)
         1        Mo     tau(   1) = (  0.3333333  0.6666667  0.0000000  )
         2        S      tau(   2) = (  0.6666667  0.3333333  0.0735295  )
         3        S      tau(   3) = (  0.6666667  0.3333333 -0.0735295  )

     number of k points=    26
                       cart. coord. in units 2pi/alat
        k(    1) = (   0.0000000   0.0000000   0.0000000), wk =   0.0555556
        k(    2) = (   0.0000000   0.5773500   0.0000000), wk =   0.0000000
        k(    3) = (   0.0000000   0.1924501   0.0000000), wk =   0.1111111
        k(    4) = (   0.0000000   0.7698001   0.0000000), wk =   0.0000000
        k(    5) = (   0.0000000   0.3849002   0.0000000), wk =   0.1111111
        k(    6) = (   0.0000000   0.9622502   0.0000000), wk =   0.0000000
        k(    7) = (   0.0000000  -0.5773503   0.0000000), wk =   0.0555556
        k(    8) = (   0.0000000  -0.0000003   0.0000000), wk =   0.0000000
        k(    9) = (   0.1666667   0.2886751   0.0000000), wk =   0.2222222
        k(   10) = (   0.1666667   0.8660251   0.0000000), wk =   0.0000000
        k(   11) = (   0.1666667   0.4811252   0.0000000), wk =   0.2222222
        k(   12) = (   0.1666667   1.0584752   0.0000000), wk =   0.0000000
        k(   13) = (   0.3333333   0.5773503   0.0000000), wk =   0.1111111
        k(   14) = (   0.3333333   1.1547003   0.0000000), wk =   0.0000000
        k(   15) = (  -0.1666667  -0.0962250   0.0000000), wk =   0.2222222
        k(   16) = (  -0.1666667   0.4811250   0.0000000), wk =   0.0000000
        k(   17) = (  -0.3333333  -0.1924501   0.0000000), wk =   0.2222222
        k(   18) = (  -0.3333333   0.3848999   0.0000000), wk =   0.0000000
        k(   19) = (   0.5000000   0.2886751   0.0000000), wk =   0.1111111
        k(   20) = (   0.5000000   0.8660251   0.0000000), wk =   0.0000000
        k(   21) = (   0.3333333  -0.0000000   0.0000000), wk =   0.1111111
        k(   22) = (   0.3333333   0.5773500   0.0000000), wk =   0.0000000
        k(   23) = (  -0.3333333  -0.3849002   0.0000000), wk =   0.2222222
        k(   24) = (  -0.3333333   0.1924498   0.0000000), wk =   0.0000000
        k(   25) = (   0.5000000  -0.0962250   0.0000000), wk =   0.2222222
        k(   26) = (   0.5000000   0.4811250   0.0000000), wk =   0.0000000

                       cryst. coord.
        k(    1) = (   0.0000000   0.0000000   0.0000000), wk =   0.0555556
        k(    2) = (   0.0000000   0.4999998   0.0000000), wk =   0.0000000
        k(    3) = (   0.0000000   0.1666667   0.0000000), wk =   0.1111111
        k(    4) = (   0.0000000   0.6666664   0.0000000), wk =   0.0000000
        k(    5) = (   0.0000000   0.3333333   0.0000000), wk =   0.1111111
        k(    6) = (   0.0000000   0.8333331   0.0000000), wk =   0.0000000
        k(    7) = (   0.0000000  -0.5000000   0.0000000), wk =   0.0555556
        k(    8) = (   0.0000000  -0.0000002   0.0000000), wk =   0.0000000
        k(    9) = (   0.1666667   0.1666667   0.0000000), wk =   0.2222222
        k(   10) = (   0.1666667   0.6666664   0.0000000), wk =   0.0000000
        k(   11) = (   0.1666667   0.3333333   0.0000000), wk =   0.2222222
        k(   12) = (   0.1666667   0.8333331   0.0000000), wk =   0.0000000
        k(   13) = (   0.3333333   0.3333333   0.0000000), wk =   0.1111111
        k(   14) = (   0.3333333   0.8333331   0.0000000), wk =   0.0000000
        k(   15) = (  -0.1666667   0.0000000   0.0000000), wk =   0.2222222
        k(   16) = (  -0.1666667   0.4999998   0.0000000), wk =   0.0000000
        k(   17) = (  -0.3333333   0.0000000   0.0000000), wk =   0.2222222
        k(   18) = (  -0.3333333   0.4999998   0.0000000), wk =   0.0000000
        k(   19) = (   0.5000000   0.0000000   0.0000000), wk =   0.1111111
        k(   20) = (   0.5000000   0.4999998   0.0000000), wk =   0.0000000
        k(   21) = (   0.3333333  -0.1666667   0.0000000), wk =   0.1111111
        k(   22) = (   0.3333333   0.3333331   0.0000000), wk =   0.0000000
        k(   23) = (  -0.3333333  -0.1666667   0.0000000), wk =   0.2222222
        k(   24) = (  -0.3333333   0.3333331   0.0000000), wk =   0.0000000
        k(   25) = (   0.5000000  -0.3333333   0.0000000), wk =   0.2222222
        k(   26) = (   0.5000000   0.1666664   0.0000000), wk =   0.0000000

     Dense  grid:   468457 G-vectors     FFT dimensions: (  54,  54, 375)

     Smooth grid:   118307 G-vectors     FFT dimensions: (  36,  36, 240)

     Dynamical RAM for                 wfc:       0.35 MB

     Dynamical RAM for     wfc (w. buffer):       0.35 MB

     Dynamical RAM for           str. fact:       0.11 MB

     Dynamical RAM for           local pot:       0.03 MB

     Dynamical RAM for          nlocal pot:       0.09 MB

     Dynamical RAM for                qrad:       4.64 MB

     Dynamical RAM for          rho,v,vnew:       0.37 MB

     Dynamical RAM for           G-vectors:       0.22 MB

     Dynamical RAM for          h,s,v(r/c):       7.32 MB

     Dynamical RAM for          <psi|beta>:       0.16 MB

     Dynamical RAM for                 psi:       1.40 MB

     Dynamical RAM for                hpsi:       1.40 MB

     Dynamical RAM for      wfcinit/wfcrot:       1.62 MB

     Estimated static dynamical RAM per process >       6.30 MB

     Estimated max dynamical RAM per process >      16.60 MB

     Estimated total dynamical RAM >       2.08 GB
 ----2D----2D----2D----2D----2D----2D----2D----2D----2D----2D----2D----2D
  The code is running with the 2D cutoff
  Please refer to:
  Sohier, T., Calandra, M., & Mauri, F. (2017), 
  Density functional perturbation theory for gated two-dimensional heterostructures:
  Theoretical developments and application to flexural phonons in graphene.
  Physical Review B, 96(7), 75448. https://doi.org/10.1103/PhysRevB.96.075448
 ----2D----2D----2D----2D----2D----2D----2D----2D----2D----2D----2D----2D

     The potential is recalculated from file :
     ./_ph0/MoS2.save/charge-density

     Starting wfcs are   18 atomic +  182 random wfcs

     Band Structure Calculation
     Davidson diagonalization with overlap

     Computing kpt #:     1
     total cpu time spent up to now is      946.8 secs

     Computing kpt #:     2
     total cpu time spent up to now is      956.8 secs

     Computing kpt #:     3
     total cpu time spent up to now is      966.5 secs

     Computing kpt #:     4
     total cpu time spent up to now is      976.6 secs

     Computing kpt #:     5
     total cpu time spent up to now is      986.9 secs

     Computing kpt #:     6
     total cpu time spent up to now is      996.3 secs

     Computing kpt #:     7
     total cpu time spent up to now is     1006.3 secs

     Computing kpt #:     8
     total cpu time spent up to now is     1016.0 secs

     Computing kpt #:     9
     total cpu time spent up to now is     1026.4 secs

     Computing kpt #:    10
     total cpu time spent up to now is     1036.7 secs

     Computing kpt #:    11
