
     Program PWSCF v.7.3.1 starts on 23Feb2026 at 15:12:50 

     This program is part of the open-source Quantum ESPRESSO suite
     for quantum simulation of materials; please cite
         "P. Giannozzi et al., J. Phys.:Condens. Matter 21 395502 (2009);
         "P. Giannozzi et al., J. Phys.:Condens. Matter 29 465901 (2017);
         "P. Giannozzi et al., J. Chem. Phys. 152 154105 (2020);
          URL http://www.quantum-espresso.org", 
     in publications or presentations arising from this work. More details at
     http://www.quantum-espresso.org/quote

     Parallel version (MPI), running on    64 processors

     MPI processes distributed on     2 nodes
     240057 MiB available memory on the printing compute node when the environment starts

     Waiting for input...
     Reading input from standard input

     Current dimensions of program PWSCF are:
     Max number of different atomic species (ntypx) = 10
     Max number of k-points (npk) =  40000
     Max angular momentum in pseudopotentials (lmaxx) =  4

     File ./tmp/MoS2.update deleted, as requested

     File ./tmp/MoS2.md deleted, as requested

     File ./tmp/MoS2.bfgs deleted, as requested
     Message from routine setup:
     Dynamics, you should have no symmetries

     K-points division:     npool     =       8
     R & G space division:  proc/nbgrp/npool/nimage =       8
     Subspace diagonalization in iterative solution of the eigenvalue problem:
     a serial algorithm will be used


     Parallelization info
     --------------------
     sticks:   dense  smooth     PW     G-vecs:    dense   smooth      PW
     Min         243      96     27                58415    14740    2301
     Max         244      97     28                58442    14769    2318
     Sum        1945     769    223               467365   117995   18465

     Using Slab Decomposition



     bravais-lattice index     =            4
     lattice parameter (alat)  =       5.9413  a.u.
     unit-cell volume          =    1222.6725 (a.u.)^3
     number of atoms/cell      =            3
     number of atomic types    =            2
     number of electrons       =        26.00
     number of Kohn-Sham states=           13
     kinetic-energy cutoff     =      80.0000  Ry
     charge density cutoff     =     800.0000  Ry
     scf convergence threshold =      1.0E-15
     mixing beta               =       0.2000
     number of iterations used =            8  plain     mixing
     energy convergence thresh.=      1.0E-07
     force convergence thresh. =      1.0E-07
     Exchange-correlation= PBESOL
                           (   1   4  10   8   0   0   0)
     nstep                     =           50


     celldm(1)=   5.941254  celldm(2)=   0.000000  celldm(3)=   6.732015
     celldm(4)=   0.000000  celldm(5)=   0.000000  celldm(6)=   0.000000

     crystal axes: (cart. coord. in units of alat)
               a(1) = (   1.000000   0.000000   0.000000 )  
               a(2) = (  -0.500000   0.866025   0.000000 )  
               a(3) = (   0.000000   0.000000   6.732015 )  

     reciprocal axes: (cart. coord. in units 2 pi/alat)
               b(1) = (  1.000000  0.577350 -0.000000 )  
               b(2) = (  0.000000  1.154701  0.000000 )  
               b(3) = (  0.000000 -0.000000  0.148544 )  


     PseudoPot. # 1 for Mo read from file:
     ../../pseudo/Mo.pbesol.dojo.upf
     MD5 check sum: c40353276b9086539cda6b9e5a66907b
     Pseudo is Norm-conserving + core correction, Zval = 14.0
     Generated using ONCVPSP code by D. R. Hamann
     Using radial grid of 1640 points,  6 beta functions with: 
                l(1) =   0
                l(2) =   0
                l(3) =   1
                l(4) =   1
                l(5) =   2
                l(6) =   2

     PseudoPot. # 2 for S  read from file:
     ../../pseudo/S.pbesol.dojo.upf
     MD5 check sum: 501737efeeef1fb1c631cda521d4e019
     Pseudo is Norm-conserving + core correction, Zval =  6.0
     Generated using ONCVPSP code by D. R. Hamann
     Using radial grid of 1146 points,  6 beta functions with: 
                l(1) =   0
                l(2) =   0
                l(3) =   1
                l(4) =   1
                l(5) =   2
                l(6) =   2

     atomic species   valence    mass     pseudopotential
     Mo               14.00    95.95000     Mo( 1.00)
     S                 6.00    32.06500     S ( 1.00)

     12 Sym. Ops. (no inversion) found


                                    s                        frac. trans.

      isym =  1     identity                                     

 cryst.   s( 1) = (     1          0          0      )
                  (     0          1          0      )
                  (     0          0          1      )

 cart.    s( 1) = (  1.0000000  0.0000000  0.0000000 )
                  (  0.0000000  1.0000000  0.0000000 )
                  (  0.0000000  0.0000000  1.0000000 )


      isym =  2     180 deg rotation - cart. axis [0,1,0]        

 cryst.   s( 2) = (    -1          0          0      )
                  (     1          1          0      )
                  (     0          0         -1      )

 cart.    s( 2) = ( -1.0000000  0.0000000  0.0000000 )
                  (  0.0000000  1.0000000  0.0000000 )
                  (  0.0000000  0.0000000 -1.0000000 )


      isym =  3     120 deg rotation - cryst. axis [0,0,1]       

 cryst.   s( 3) = (     0          1          0      )
                  (    -1         -1          0      )
                  (     0          0          1      )

 cart.    s( 3) = ( -0.5000000 -0.8660254  0.0000000 )
                  (  0.8660254 -0.5000000  0.0000000 )
                  (  0.0000000  0.0000000  1.0000000 )


      isym =  4     120 deg rotation - cryst. axis [0,0,-1]      

 cryst.   s( 4) = (    -1         -1          0      )
                  (     1          0          0      )
                  (     0          0          1      )

 cart.    s( 4) = ( -0.5000000  0.8660254  0.0000000 )
                  ( -0.8660254 -0.5000000  0.0000000 )
                  (  0.0000000  0.0000000  1.0000000 )


      isym =  5     180 deg rotation - cryst. axis [1,-1,0]      

 cryst.   s( 5) = (     0         -1          0      )
                  (    -1          0          0      )
                  (     0          0         -1      )

 cart.    s( 5) = (  0.5000000 -0.8660254  0.0000000 )
                  ( -0.8660254 -0.5000000  0.0000000 )
                  (  0.0000000  0.0000000 -1.0000000 )


      isym =  6     180 deg rotation - cryst. axis [2,1,0]       

 cryst.   s( 6) = (     1          1          0      )
                  (     0         -1          0      )
                  (     0          0         -1      )

 cart.    s( 6) = (  0.5000000  0.8660254  0.0000000 )
                  (  0.8660254 -0.5000000  0.0000000 )
                  (  0.0000000  0.0000000 -1.0000000 )


      isym =  7     inv. 180 deg rotation - cart. axis [0,0,1]   

 cryst.   s( 7) = (     1          0          0      )
                  (     0          1          0      )
                  (     0          0         -1      )

 cart.    s( 7) = (  1.0000000  0.0000000  0.0000000 )
                  (  0.0000000  1.0000000  0.0000000 )
                  (  0.0000000  0.0000000 -1.0000000 )


      isym =  8     inv. 180 deg rotation - cart. axis [1,0,0]   

 cryst.   s( 8) = (    -1          0          0      )
                  (     1          1          0      )
                  (     0          0          1      )

 cart.    s( 8) = ( -1.0000000  0.0000000  0.0000000 )
                  (  0.0000000  1.0000000  0.0000000 )
                  (  0.0000000  0.0000000  1.0000000 )


      isym =  9     inv.  60 deg rotation - cryst. axis [0,0,1]  

 cryst.   s( 9) = (    -1         -1          0      )
                  (     1          0          0      )
                  (     0          0         -1      )

 cart.    s( 9) = ( -0.5000000  0.8660254  0.0000000 )
                  ( -0.8660254 -0.5000000  0.0000000 )
                  (  0.0000000  0.0000000 -1.0000000 )


      isym = 10     inv.  60 deg rotation - cryst. axis [0,0,-1] 

 cryst.   s(10) = (     0          1          0      )
                  (    -1         -1          0      )
                  (     0          0         -1      )

 cart.    s(10) = ( -0.5000000 -0.8660254  0.0000000 )
                  (  0.8660254 -0.5000000  0.0000000 )
                  (  0.0000000  0.0000000 -1.0000000 )


      isym = 11     inv. 180 deg rotation - cryst. axis [0,1,0]  

 cryst.   s(11) = (     1          1          0      )
                  (     0         -1          0      )
                  (     0          0          1      )

 cart.    s(11) = (  0.5000000  0.8660254  0.0000000 )
                  (  0.8660254 -0.5000000  0.0000000 )
                  (  0.0000000  0.0000000  1.0000000 )


      isym = 12     inv. 180 deg rotation - cryst. axis [1,1,0]  

 cryst.   s(12) = (     0         -1          0      )
                  (    -1          0          0      )
                  (     0          0          1      )

 cart.    s(12) = (  0.5000000 -0.8660254  0.0000000 )
                  ( -0.8660254 -0.5000000  0.0000000 )
                  (  0.0000000  0.0000000  1.0000000 )


     point group D_3h (-62m)
     there are  6 classes
     the character table:

       E     2C3   3C2   s_h   2S3   3s_v 
A'_1   1.00  1.00  1.00  1.00  1.00  1.00
A'_2   1.00  1.00 -1.00  1.00  1.00 -1.00
E'     2.00 -1.00  0.00  2.00 -1.00  0.00
A''1   1.00  1.00  1.00 -1.00 -1.00 -1.00
A''2   1.00  1.00 -1.00 -1.00 -1.00  1.00
E''    2.00 -1.00  0.00 -2.00  1.00  0.00

     the symmetry operations in each class and the name of the first element:

     E        1
          identity                                               
     2C3      3    4
          120 deg rotation - cryst. axis [0,0,1]                 
     3C2      2    6    5
          180 deg rotation - cart. axis [0,1,0]                  
     s_h      7
          inv. 180 deg rotation - cart. axis [0,0,1]             
     2S3      9   10
          inv.  60 deg rotation - cryst. axis [0,0,1]            
     3s_v     8   11   12
          inv. 180 deg rotation - cart. axis [1,0,0]             

   Cartesian axes

     site n.     atom                  positions (alat units)
         1        Mo     tau(   1) = (   0.0000000   0.5773502   3.3660074  )
         2        S      tau(   2) = (   0.5000000   0.2886751   3.8617060  )
         3        S      tau(   3) = (   0.5000000   0.2886751   2.8703088  )

   Crystallographic axes

     site n.     atom                  positions (cryst. coord.)
         1        Mo     tau(   1) = (  0.3333333  0.6666666  0.5000000  )
         2        S      tau(   2) = (  0.6666667  0.3333333  0.5736330  )
         3        S      tau(   3) = (  0.6666667  0.3333333  0.4263670  )

     number of k points=    37
                       cart. coord. in units 2pi/alat
        k(    1) = (   0.0000000   0.0000000   0.0000000), wk =   0.0061728
        k(    2) = (   0.0000000   0.0641500   0.0000000), wk =   0.0370370
        k(    3) = (   0.0000000   0.1283001   0.0000000), wk =   0.0370370
        k(    4) = (   0.0000000   0.1924501   0.0000000), wk =   0.0370370
        k(    5) = (   0.0000000   0.2566001   0.0000000), wk =   0.0370370
        k(    6) = (   0.0000000   0.3207501   0.0000000), wk =   0.0370370
        k(    7) = (   0.0000000   0.3849002   0.0000000), wk =   0.0370370
        k(    8) = (   0.0000000   0.4490502   0.0000000), wk =   0.0370370
        k(    9) = (   0.0000000   0.5132002   0.0000000), wk =   0.0370370
        k(   10) = (   0.0000000  -0.5773503   0.0000000), wk =   0.0185185
        k(   11) = (   0.0555556   0.0962250   0.0000000), wk =   0.0370370
        k(   12) = (   0.0555556   0.1603751   0.0000000), wk =   0.0740741
        k(   13) = (   0.0555556   0.2245251   0.0000000), wk =   0.0740741
        k(   14) = (   0.0555556   0.2886751   0.0000000), wk =   0.0740741
        k(   15) = (   0.0555556   0.3528252   0.0000000), wk =   0.0740741
        k(   16) = (   0.0555556   0.4169752   0.0000000), wk =   0.0740741
        k(   17) = (   0.0555556   0.4811252   0.0000000), wk =   0.0740741
        k(   18) = (   0.0555556   0.5452753   0.0000000), wk =   0.0740741
        k(   19) = (   0.1111111   0.1924501   0.0000000), wk =   0.0370370
        k(   20) = (   0.1111111   0.2566001   0.0000000), wk =   0.0740741
        k(   21) = (   0.1111111   0.3207501   0.0000000), wk =   0.0740741
        k(   22) = (   0.1111111   0.3849002   0.0000000), wk =   0.0740741
        k(   23) = (   0.1111111   0.4490502   0.0000000), wk =   0.0740741
        k(   24) = (   0.1111111   0.5132002   0.0000000), wk =   0.0740741
        k(   25) = (   0.1111111   0.5773503   0.0000000), wk =   0.0370370
        k(   26) = (   0.1666667   0.2886751   0.0000000), wk =   0.0370370
        k(   27) = (   0.1666667   0.3528252   0.0000000), wk =   0.0740741
        k(   28) = (   0.1666667   0.4169752   0.0000000), wk =   0.0740741
        k(   29) = (   0.1666667   0.4811252   0.0000000), wk =   0.0740741
        k(   30) = (   0.1666667   0.5452753   0.0000000), wk =   0.0740741
        k(   31) = (   0.2222222   0.3849002   0.0000000), wk =   0.0370370
        k(   32) = (   0.2222222   0.4490502   0.0000000), wk =   0.0740741
        k(   33) = (   0.2222222   0.5132002   0.0000000), wk =   0.0740741
        k(   34) = (   0.2222222   0.5773503   0.0000000), wk =   0.0370370
        k(   35) = (   0.2777778   0.4811252   0.0000000), wk =   0.0370370
        k(   36) = (   0.2777778   0.5452753   0.0000000), wk =   0.0740741
        k(   37) = (   0.3333333   0.5773503   0.0000000), wk =   0.0123457

                       cryst. coord.
        k(    1) = (   0.0000000   0.0000000   0.0000000), wk =   0.0061728
        k(    2) = (   0.0000000   0.0555556   0.0000000), wk =   0.0370370
        k(    3) = (   0.0000000   0.1111111   0.0000000), wk =   0.0370370
        k(    4) = (   0.0000000   0.1666667   0.0000000), wk =   0.0370370
        k(    5) = (   0.0000000   0.2222222   0.0000000), wk =   0.0370370
        k(    6) = (   0.0000000   0.2777778   0.0000000), wk =   0.0370370
        k(    7) = (   0.0000000   0.3333333   0.0000000), wk =   0.0370370
        k(    8) = (   0.0000000   0.3888889   0.0000000), wk =   0.0370370
        k(    9) = (   0.0000000   0.4444444   0.0000000), wk =   0.0370370
        k(   10) = (   0.0000000  -0.5000000   0.0000000), wk =   0.0185185
        k(   11) = (   0.0555556   0.0555556   0.0000000), wk =   0.0370370
        k(   12) = (   0.0555556   0.1111111   0.0000000), wk =   0.0740741
        k(   13) = (   0.0555556   0.1666667   0.0000000), wk =   0.0740741
        k(   14) = (   0.0555556   0.2222222   0.0000000), wk =   0.0740741
        k(   15) = (   0.0555556   0.2777778   0.0000000), wk =   0.0740741
        k(   16) = (   0.0555556   0.3333333   0.0000000), wk =   0.0740741
        k(   17) = (   0.0555556   0.3888889   0.0000000), wk =   0.0740741
        k(   18) = (   0.0555556   0.4444444   0.0000000), wk =   0.0740741
        k(   19) = (   0.1111111   0.1111111   0.0000000), wk =   0.0370370
        k(   20) = (   0.1111111   0.1666667   0.0000000), wk =   0.0740741
        k(   21) = (   0.1111111   0.2222222   0.0000000), wk =   0.0740741
        k(   22) = (   0.1111111   0.2777778   0.0000000), wk =   0.0740741
        k(   23) = (   0.1111111   0.3333333   0.0000000), wk =   0.0740741
        k(   24) = (   0.1111111   0.3888889   0.0000000), wk =   0.0740741
        k(   25) = (   0.1111111   0.4444444   0.0000000), wk =   0.0370370
        k(   26) = (   0.1666667   0.1666667   0.0000000), wk =   0.0370370
        k(   27) = (   0.1666667   0.2222222   0.0000000), wk =   0.0740741
        k(   28) = (   0.1666667   0.2777778   0.0000000), wk =   0.0740741
        k(   29) = (   0.1666667   0.3333333   0.0000000), wk =   0.0740741
        k(   30) = (   0.1666667   0.3888889   0.0000000), wk =   0.0740741
        k(   31) = (   0.2222222   0.2222222   0.0000000), wk =   0.0370370
        k(   32) = (   0.2222222   0.2777778   0.0000000), wk =   0.0740741
        k(   33) = (   0.2222222   0.3333333   0.0000000), wk =   0.0740741
        k(   34) = (   0.2222222   0.3888889   0.0000000), wk =   0.0370370
        k(   35) = (   0.2777778   0.2777778   0.0000000), wk =   0.0370370
        k(   36) = (   0.2777778   0.3333333   0.0000000), wk =   0.0740741
        k(   37) = (   0.3333333   0.3333333   0.0000000), wk =   0.0123457

     Dense  grid:   467365 G-vectors     FFT dimensions: (  54,  54, 375)

     Smooth grid:   117995 G-vectors     FFT dimensions: (  36,  36, 240)

     Dynamical RAM for                 wfc:       0.37 MB

     Dynamical RAM for     wfc (w. buffer):       2.20 MB

     Dynamical RAM for           str. fact:       1.78 MB

     Dynamical RAM for           local pot:       0.00 MB

     Dynamical RAM for          nlocal pot:       1.52 MB

     Dynamical RAM for                qrad:       4.54 MB

     Dynamical RAM for          rho,v,vnew:       5.81 MB

     Dynamical RAM for               rhoin:       1.94 MB

     Dynamical RAM for            rho*nmix:      14.26 MB

     Dynamical RAM for           G-vectors:       3.46 MB

     Dynamical RAM for          h,s,v(r/c):       0.03 MB

     Dynamical RAM for          <psi|beta>:       0.01 MB

     Dynamical RAM for                 psi:       0.73 MB

     Dynamical RAM for                hpsi:       0.73 MB

     Dynamical RAM for      wfcinit/wfcrot:       1.02 MB

     Estimated static dynamical RAM per process >      29.14 MB

     Estimated max dynamical RAM per process >      44.91 MB

     Estimated total dynamical RAM >       2.03 GB
 ----2D----2D----2D----2D----2D----2D----2D----2D----2D----2D----2D----2D
  The code is running with the 2D cutoff
  Please refer to:
  Sohier, T., Calandra, M., & Mauri, F. (2017), 
  Density functional perturbation theory for gated two-dimensional heterostructures:
  Theoretical developments and application to flexural phonons in graphene.
  Physical Review B, 96(7), 75448. https://doi.org/10.1103/PhysRevB.96.075448
 ----2D----2D----2D----2D----2D----2D----2D----2D----2D----2D----2D----2D

     The initial density is read from file :
     ./tmp/MoS2.save/charge-density

     Starting wfcs are   18 randomized atomic wfcs

     total cpu time spent up to now is       19.7 secs

     per-process dynamical memory:    91.8 Mb

     Self-consistent Calculation

     iteration #  1     ecut=    80.00 Ry     beta= 0.20
     Davidson diagonalization with overlap

---- Real-time Memory Report at c_bands before calling an iterative solver
           104 MiB given to the printing process from OS
            89 MiB allocation reported by mallinfo(arena+hblkhd)
        238669 MiB available memory on the node where the printing process lives
------------------
     ethr =  1.00E-05,  avg # of iterations = 11.5

     total cpu time spent up to now is       23.8 secs

     total energy              =    -184.83155345 Ry
     estimated scf accuracy    <       0.00098924 Ry

     iteration #  2     ecut=    80.00 Ry     beta= 0.20
     Davidson diagonalization with overlap

---- Real-time Memory Report at c_bands before calling an iterative solver
           121 MiB given to the printing process from OS
            93 MiB allocation reported by mallinfo(arena+hblkhd)
        237952 MiB available memory on the node where the printing process lives
------------------
     ethr =  3.80E-06,  avg # of iterations =  3.9

     total cpu time spent up to now is       24.3 secs

     total energy              =    -184.83181433 Ry
     estimated scf accuracy    <       0.00002795 Ry

     iteration #  3     ecut=    80.00 Ry     beta= 0.20
     Davidson diagonalization with overlap

---- Real-time Memory Report at c_bands before calling an iterative solver
           122 MiB given to the printing process from OS
            94 MiB allocation reported by mallinfo(arena+hblkhd)
        237935 MiB available memory on the node where the printing process lives
------------------
     ethr =  1.08E-07,  avg # of iterations =  6.1

     total cpu time spent up to now is       24.9 secs

     total energy              =    -184.83181366 Ry
     estimated scf accuracy    <       0.00007195 Ry

     iteration #  4     ecut=    80.00 Ry     beta= 0.20
     Davidson diagonalization with overlap

---- Real-time Memory Report at c_bands before calling an iterative solver
           123 MiB given to the printing process from OS
            95 MiB allocation reported by mallinfo(arena+hblkhd)
        237916 MiB available memory on the node where the printing process lives
------------------
     ethr =  1.08E-07,  avg # of iterations =  5.6

     total cpu time spent up to now is       25.4 secs

     total energy              =    -184.83182942 Ry
     estimated scf accuracy    <       0.00001737 Ry

     iteration #  5     ecut=    80.00 Ry     beta= 0.20
     Davidson diagonalization with overlap

---- Real-time Memory Report at c_bands before calling an iterative solver
           123 MiB given to the printing process from OS
            95 MiB allocation reported by mallinfo(arena+hblkhd)
        237901 MiB available memory on the node where the printing process lives
------------------
     ethr =  6.68E-08,  avg # of iterations =  2.0

     total cpu time spent up to now is       25.8 secs

     total energy              =    -184.83182880 Ry
     estimated scf accuracy    <       0.00000368 Ry

     iteration #  6     ecut=    80.00 Ry     beta= 0.20
     Davidson diagonalization with overlap

---- Real-time Memory Report at c_bands before calling an iterative solver
           124 MiB given to the printing process from OS
            95 MiB allocation reported by mallinfo(arena+hblkhd)
        237892 MiB available memory on the node where the printing process lives
------------------
     ethr =  1.42E-08,  avg # of iterations =  6.2

     total cpu time spent up to now is       26.3 secs

     total energy              =    -184.83183073 Ry
     estimated scf accuracy    <       0.00001570 Ry

     iteration #  7     ecut=    80.00 Ry     beta= 0.20
     Davidson diagonalization with overlap

---- Real-time Memory Report at c_bands before calling an iterative solver
           125 MiB given to the printing process from OS
            96 MiB allocation reported by mallinfo(arena+hblkhd)
        237885 MiB available memory on the node where the printing process lives
------------------
     ethr =  1.42E-08,  avg # of iterations =  3.4

     total cpu time spent up to now is       26.8 secs

     total energy              =    -184.83183013 Ry
     estimated scf accuracy    <       0.00000460 Ry

     iteration #  8     ecut=    80.00 Ry     beta= 0.20
     Davidson diagonalization with overlap

---- Real-time Memory Report at c_bands before calling an iterative solver
           126 MiB given to the printing process from OS
            96 MiB allocation reported by mallinfo(arena+hblkhd)
        237871 MiB available memory on the node where the printing process lives
------------------
     ethr =  1.42E-08,  avg # of iterations =  4.3

     total cpu time spent up to now is       27.2 secs

     total energy              =    -184.83183129 Ry
     estimated scf accuracy    <       0.00000011 Ry

     iteration #  9     ecut=    80.00 Ry     beta= 0.20
     Davidson diagonalization with overlap

---- Real-time Memory Report at c_bands before calling an iterative solver
           126 MiB given to the printing process from OS
            97 MiB allocation reported by mallinfo(arena+hblkhd)
        237861 MiB available memory on the node where the printing process lives
------------------
     ethr =  4.26E-10,  avg # of iterations =  6.3

     total cpu time spent up to now is       27.8 secs

     total energy              =    -184.83183132 Ry
     estimated scf accuracy    <       0.00000079 Ry

     iteration # 10     ecut=    80.00 Ry     beta= 0.20
     Davidson diagonalization with overlap

---- Real-time Memory Report at c_bands before calling an iterative solver
           127 MiB given to the printing process from OS
            97 MiB allocation reported by mallinfo(arena+hblkhd)
        237860 MiB available memory on the node where the printing process lives
------------------
     ethr =  4.26E-10,  avg # of iterations =  2.1

     total cpu time spent up to now is       28.2 secs

     total energy              =    -184.83183123 Ry
     estimated scf accuracy    <       0.00000050 Ry

     iteration # 11     ecut=    80.00 Ry     beta= 0.20
     Davidson diagonalization with overlap

---- Real-time Memory Report at c_bands before calling an iterative solver
           127 MiB given to the printing process from OS
            97 MiB allocation reported by mallinfo(arena+hblkhd)
        237856 MiB available memory on the node where the printing process lives
------------------
     ethr =  4.26E-10,  avg # of iterations =  4.6

     total cpu time spent up to now is       28.6 secs

     total energy              =    -184.83183127 Ry
     estimated scf accuracy    <       0.00000004 Ry

     iteration # 12     ecut=    80.00 Ry     beta= 0.20
     Davidson diagonalization with overlap

---- Real-time Memory Report at c_bands before calling an iterative solver
           127 MiB given to the printing process from OS
            97 MiB allocation reported by mallinfo(arena+hblkhd)
        237855 MiB available memory on the node where the printing process lives
------------------
     ethr =  1.66E-10,  avg # of iterations =  2.5

     total cpu time spent up to now is       29.1 secs

     total energy              =    -184.83183127 Ry
     estimated scf accuracy    <          9.7E-09 Ry

     iteration # 13     ecut=    80.00 Ry     beta= 0.20
     Davidson diagonalization with overlap

---- Real-time Memory Report at c_bands before calling an iterative solver
           127 MiB given to the printing process from OS
            97 MiB allocation reported by mallinfo(arena+hblkhd)
        237849 MiB available memory on the node where the printing process lives
------------------
     ethr =  3.74E-11,  avg # of iterations =  4.5

     total cpu time spent up to now is       29.6 secs

     total energy              =    -184.83183127 Ry
     estimated scf accuracy    <          3.5E-10 Ry

     iteration # 14     ecut=    80.00 Ry     beta= 0.20
     Davidson diagonalization with overlap

---- Real-time Memory Report at c_bands before calling an iterative solver
           127 MiB given to the printing process from OS
            97 MiB allocation reported by mallinfo(arena+hblkhd)
        237848 MiB available memory on the node where the printing process lives
------------------
     ethr =  1.35E-12,  avg # of iterations =  6.8

     total cpu time spent up to now is       30.2 secs

     total energy              =    -184.83183127 Ry
     estimated scf accuracy    <          6.3E-09 Ry

     iteration # 15     ecut=    80.00 Ry     beta= 0.20
     Davidson diagonalization with overlap

---- Real-time Memory Report at c_bands before calling an iterative solver
           127 MiB given to the printing process from OS
            97 MiB allocation reported by mallinfo(arena+hblkhd)
        237844 MiB available memory on the node where the printing process lives
------------------
     ethr =  1.35E-12,  avg # of iterations =  6.5

     total cpu time spent up to now is       30.8 secs

     total energy              =    -184.83183127 Ry
     estimated scf accuracy    <          6.9E-12 Ry

     iteration # 16     ecut=    80.00 Ry     beta= 0.20
     Davidson diagonalization with overlap

---- Real-time Memory Report at c_bands before calling an iterative solver
           128 MiB given to the printing process from OS
            97 MiB allocation reported by mallinfo(arena+hblkhd)
        237843 MiB available memory on the node where the printing process lives
------------------
     ethr =  1.00E-13,  avg # of iterations =  8.4

     total cpu time spent up to now is       31.6 secs

     total energy              =    -184.83183127 Ry
     estimated scf accuracy    <          1.4E-09 Ry

     iteration # 17     ecut=    80.00 Ry     beta= 0.20
     Davidson diagonalization with overlap

---- Real-time Memory Report at c_bands before calling an iterative solver
           128 MiB given to the printing process from OS
            97 MiB allocation reported by mallinfo(arena+hblkhd)
        237842 MiB available memory on the node where the printing process lives
------------------
     ethr =  1.00E-13,  avg # of iterations =  7.6

     total cpu time spent up to now is       32.2 secs

     total energy              =    -184.83183127 Ry
     estimated scf accuracy    <          9.0E-11 Ry

     iteration # 18     ecut=    80.00 Ry     beta= 0.20
     Davidson diagonalization with overlap

---- Real-time Memory Report at c_bands before calling an iterative solver
           128 MiB given to the printing process from OS
            97 MiB allocation reported by mallinfo(arena+hblkhd)
        237838 MiB available memory on the node where the printing process lives
------------------
     ethr =  1.00E-13,  avg # of iterations =  6.4

     total cpu time spent up to now is       32.8 secs

     total energy              =    -184.83183127 Ry
     estimated scf accuracy    <          9.1E-11 Ry

     iteration # 19     ecut=    80.00 Ry     beta= 0.20
     Davidson diagonalization with overlap

---- Real-time Memory Report at c_bands before calling an iterative solver
           128 MiB given to the printing process from OS
            97 MiB allocation reported by mallinfo(arena+hblkhd)
        237839 MiB available memory on the node where the printing process lives
------------------
     ethr =  1.00E-13,  avg # of iterations =  2.3

     total cpu time spent up to now is       33.2 secs

     total energy              =    -184.83183127 Ry
     estimated scf accuracy    <          4.3E-11 Ry

     iteration # 20     ecut=    80.00 Ry     beta= 0.20
     Davidson diagonalization with overlap

---- Real-time Memory Report at c_bands before calling an iterative solver
           128 MiB given to the printing process from OS
            97 MiB allocation reported by mallinfo(arena+hblkhd)
        237838 MiB available memory on the node where the printing process lives
------------------
     ethr =  1.00E-13,  avg # of iterations =  3.8

     total cpu time spent up to now is       33.6 secs

     total energy              =    -184.83183127 Ry
     estimated scf accuracy    <          2.1E-12 Ry

     iteration # 21     ecut=    80.00 Ry     beta= 0.20
     Davidson diagonalization with overlap

---- Real-time Memory Report at c_bands before calling an iterative solver
           128 MiB given to the printing process from OS
            97 MiB allocation reported by mallinfo(arena+hblkhd)
        237835 MiB available memory on the node where the printing process lives
------------------
     ethr =  1.00E-13,  avg # of iterations =  3.6

     total cpu time spent up to now is       34.1 secs

     total energy              =    -184.83183127 Ry
     estimated scf accuracy    <          1.4E-11 Ry

     iteration # 22     ecut=    80.00 Ry     beta= 0.20
     Davidson diagonalization with overlap

---- Real-time Memory Report at c_bands before calling an iterative solver
           128 MiB given to the printing process from OS
            97 MiB allocation reported by mallinfo(arena+hblkhd)
        237837 MiB available memory on the node where the printing process lives
------------------
     ethr =  1.00E-13,  avg # of iterations =  1.0

     total cpu time spent up to now is       34.4 secs

     total energy              =    -184.83183127 Ry
     estimated scf accuracy    <          9.2E-12 Ry

     iteration # 23     ecut=    80.00 Ry     beta= 0.20
     Davidson diagonalization with overlap

---- Real-time Memory Report at c_bands before calling an iterative solver
           128 MiB given to the printing process from OS
            97 MiB allocation reported by mallinfo(arena+hblkhd)
        237835 MiB available memory on the node where the printing process lives
------------------
     ethr =  1.00E-13,  avg # of iterations =  1.0

     total cpu time spent up to now is       34.8 secs

     total energy              =    -184.83183127 Ry
     estimated scf accuracy    <          5.0E-12 Ry

     iteration # 24     ecut=    80.00 Ry     beta= 0.20
     Davidson diagonalization with overlap

---- Real-time Memory Report at c_bands before calling an iterative solver
           128 MiB given to the printing process from OS
            97 MiB allocation reported by mallinfo(arena+hblkhd)
        237834 MiB available memory on the node where the printing process lives
------------------
     ethr =  1.00E-13,  avg # of iterations =  1.0

     total cpu time spent up to now is       35.2 secs

     total energy              =    -184.83183127 Ry
     estimated scf accuracy    <          3.1E-12 Ry

     iteration # 25     ecut=    80.00 Ry     beta= 0.20
     Davidson diagonalization with overlap

---- Real-time Memory Report at c_bands before calling an iterative solver
           128 MiB given to the printing process from OS
            97 MiB allocation reported by mallinfo(arena+hblkhd)
        237832 MiB available memory on the node where the printing process lives
------------------
     ethr =  1.00E-13,  avg # of iterations =  1.0

     total cpu time spent up to now is       35.5 secs

     total energy              =    -184.83183127 Ry
     estimated scf accuracy    <          1.7E-12 Ry

     iteration # 26     ecut=    80.00 Ry     beta= 0.20
     Davidson diagonalization with overlap

---- Real-time Memory Report at c_bands before calling an iterative solver
           128 MiB given to the printing process from OS
            97 MiB allocation reported by mallinfo(arena+hblkhd)
        237827 MiB available memory on the node where the printing process lives
------------------
     ethr =  1.00E-13,  avg # of iterations =  1.0

     total cpu time spent up to now is       35.9 secs

     total energy              =    -184.83183127 Ry
     estimated scf accuracy    <          7.6E-13 Ry

     iteration # 27     ecut=    80.00 Ry     beta= 0.20
     Davidson diagonalization with overlap

---- Real-time Memory Report at c_bands before calling an iterative solver
           128 MiB given to the printing process from OS
            97 MiB allocation reported by mallinfo(arena+hblkhd)
        237825 MiB available memory on the node where the printing process lives
------------------
     ethr =  1.00E-13,  avg # of iterations =  1.0

     total cpu time spent up to now is       36.2 secs

     total energy              =    -184.83183127 Ry
     estimated scf accuracy    <          3.5E-13 Ry

     iteration # 28     ecut=    80.00 Ry     beta= 0.20
     Davidson diagonalization with overlap

---- Real-time Memory Report at c_bands before calling an iterative solver
           128 MiB given to the printing process from OS
            97 MiB allocation reported by mallinfo(arena+hblkhd)
        237827 MiB available memory on the node where the printing process lives
------------------
     ethr =  1.00E-13,  avg # of iterations =  1.0

     total cpu time spent up to now is       36.6 secs

     total energy              =    -184.83183127 Ry
     estimated scf accuracy    <          2.4E-13 Ry

     iteration # 29     ecut=    80.00 Ry     beta= 0.20
     Davidson diagonalization with overlap

---- Real-time Memory Report at c_bands before calling an iterative solver
           128 MiB given to the printing process from OS
            97 MiB allocation reported by mallinfo(arena+hblkhd)
        237827 MiB available memory on the node where the printing process lives
------------------
     ethr =  1.00E-13,  avg # of iterations =  1.0

     total cpu time spent up to now is       37.0 secs

     total energy              =    -184.83183127 Ry
     estimated scf accuracy    <          2.9E-14 Ry

     iteration # 30     ecut=    80.00 Ry     beta= 0.20
     Davidson diagonalization with overlap

---- Real-time Memory Report at c_bands before calling an iterative solver
           128 MiB given to the printing process from OS
            97 MiB allocation reported by mallinfo(arena+hblkhd)
        237826 MiB available memory on the node where the printing process lives
------------------
     ethr =  1.00E-13,  avg # of iterations =  1.0

     total cpu time spent up to now is       37.3 secs

     total energy              =    -184.83183127 Ry
     estimated scf accuracy    <          1.7E-13 Ry

     iteration # 31     ecut=    80.00 Ry     beta= 0.20
     Davidson diagonalization with overlap

---- Real-time Memory Report at c_bands before calling an iterative solver
           128 MiB given to the printing process from OS
            97 MiB allocation reported by mallinfo(arena+hblkhd)
        237822 MiB available memory on the node where the printing process lives
------------------
     ethr =  1.00E-13,  avg # of iterations =  1.0

     total cpu time spent up to now is       37.7 secs

     total energy              =    -184.83183127 Ry
     estimated scf accuracy    <          5.6E-15 Ry

     iteration # 32     ecut=    80.00 Ry     beta= 0.20
     Davidson diagonalization with overlap

---- Real-time Memory Report at c_bands before calling an iterative solver
           128 MiB given to the printing process from OS
            97 MiB allocation reported by mallinfo(arena+hblkhd)
        237824 MiB available memory on the node where the printing process lives
------------------
     ethr =  1.00E-13,  avg # of iterations =  1.0

     total cpu time spent up to now is       38.0 secs

     total energy              =    -184.83183127 Ry
     estimated scf accuracy    <          1.0E-14 Ry

     iteration # 33     ecut=    80.00 Ry     beta= 0.20
     Davidson diagonalization with overlap

---- Real-time Memory Report at c_bands before calling an iterative solver
           128 MiB given to the printing process from OS
            97 MiB allocation reported by mallinfo(arena+hblkhd)
        237822 MiB available memory on the node where the printing process lives
------------------
     ethr =  1.00E-13,  avg # of iterations =  1.0

     total cpu time spent up to now is       38.4 secs

     total energy              =    -184.83183127 Ry
     estimated scf accuracy    <          1.8E-15 Ry

     iteration # 34     ecut=    80.00 Ry     beta= 0.20
     Davidson diagonalization with overlap

---- Real-time Memory Report at c_bands before calling an iterative solver
           128 MiB given to the printing process from OS
            97 MiB allocation reported by mallinfo(arena+hblkhd)
        237825 MiB available memory on the node where the printing process lives
------------------
     ethr =  1.00E-13,  avg # of iterations =  1.0

     total cpu time spent up to now is       38.8 secs

     total energy              =    -184.83183127 Ry
     estimated scf accuracy    <          4.0E-15 Ry

     iteration # 35     ecut=    80.00 Ry     beta= 0.20
     Davidson diagonalization with overlap

---- Real-time Memory Report at c_bands before calling an iterative solver
           128 MiB given to the printing process from OS
            97 MiB allocation reported by mallinfo(arena+hblkhd)
        237821 MiB available memory on the node where the printing process lives
------------------
     ethr =  1.00E-13,  avg # of iterations =  1.0

     total cpu time spent up to now is       39.1 secs

     total energy              =    -184.83183127 Ry
     estimated scf accuracy    <          3.9E-15 Ry

     iteration # 36     ecut=    80.00 Ry     beta= 0.20
     Davidson diagonalization with overlap

---- Real-time Memory Report at c_bands before calling an iterative solver
           128 MiB given to the printing process from OS
            97 MiB allocation reported by mallinfo(arena+hblkhd)
        237824 MiB available memory on the node where the printing process lives
------------------
     ethr =  1.00E-13,  avg # of iterations =  1.0

     total cpu time spent up to now is       39.5 secs

     total energy              =    -184.83183127 Ry
     estimated scf accuracy    <          6.7E-15 Ry

     iteration # 37     ecut=    80.00 Ry     beta= 0.20
     Davidson diagonalization with overlap

---- Real-time Memory Report at c_bands before calling an iterative solver
           128 MiB given to the printing process from OS
            97 MiB allocation reported by mallinfo(arena+hblkhd)
        237822 MiB available memory on the node where the printing process lives
------------------
     ethr =  1.00E-13,  avg # of iterations =  1.0

     total cpu time spent up to now is       39.8 secs

     total energy              =    -184.83183127 Ry
     estimated scf accuracy    <          2.1E-14 Ry

     iteration # 38     ecut=    80.00 Ry     beta= 0.20
     Davidson diagonalization with overlap

---- Real-time Memory Report at c_bands before calling an iterative solver
           128 MiB given to the printing process from OS
            97 MiB allocation reported by mallinfo(arena+hblkhd)
        237823 MiB available memory on the node where the printing process lives
------------------
     ethr =  1.00E-13,  avg # of iterations =  1.0

     total cpu time spent up to now is       40.2 secs

     total energy              =    -184.83183127 Ry
     estimated scf accuracy    <          2.0E-14 Ry

     iteration # 39     ecut=    80.00 Ry     beta= 0.20
     Davidson diagonalization with overlap

---- Real-time Memory Report at c_bands before calling an iterative solver
           128 MiB given to the printing process from OS
            97 MiB allocation reported by mallinfo(arena+hblkhd)
        237823 MiB available memory on the node where the printing process lives
------------------
     ethr =  1.00E-13,  avg # of iterations =  1.0

     total cpu time spent up to now is       40.5 secs

     total energy              =    -184.83183127 Ry
     estimated scf accuracy    <          2.8E-15 Ry

     iteration # 40     ecut=    80.00 Ry     beta= 0.20
     Davidson diagonalization with overlap

---- Real-time Memory Report at c_bands before calling an iterative solver
           128 MiB given to the printing process from OS
            97 MiB allocation reported by mallinfo(arena+hblkhd)
        237824 MiB available memory on the node where the printing process lives
------------------
     ethr =  1.00E-13,  avg # of iterations =  1.0

     total cpu time spent up to now is       40.9 secs

     total energy              =    -184.83183127 Ry
     estimated scf accuracy    <          2.0E-15 Ry

     iteration # 41     ecut=    80.00 Ry     beta= 0.20
     Davidson diagonalization with overlap

---- Real-time Memory Report at c_bands before calling an iterative solver
           128 MiB given to the printing process from OS
            97 MiB allocation reported by mallinfo(arena+hblkhd)
        237820 MiB available memory on the node where the printing process lives
------------------
     ethr =  1.00E-13,  avg # of iterations =  1.0

     total cpu time spent up to now is       41.3 secs

     total energy              =    -184.83183127 Ry
     estimated scf accuracy    <          4.4E-15 Ry

     iteration # 42     ecut=    80.00 Ry     beta= 0.20
     Davidson diagonalization with overlap

---- Real-time Memory Report at c_bands before calling an iterative solver
           128 MiB given to the printing process from OS
            97 MiB allocation reported by mallinfo(arena+hblkhd)
        237823 MiB available memory on the node where the printing process lives
------------------
     ethr =  1.00E-13,  avg # of iterations =  1.0

     total cpu time spent up to now is       41.6 secs

     total energy              =    -184.83183127 Ry
     estimated scf accuracy    <          2.2E-15 Ry

     iteration # 43     ecut=    80.00 Ry     beta= 0.20
     Davidson diagonalization with overlap

---- Real-time Memory Report at c_bands before calling an iterative solver
           128 MiB given to the printing process from OS
            97 MiB allocation reported by mallinfo(arena+hblkhd)
        237822 MiB available memory on the node where the printing process lives
------------------
     ethr =  1.00E-13,  avg # of iterations =  1.0

     total cpu time spent up to now is       42.0 secs

     total energy              =    -184.83183127 Ry
     estimated scf accuracy    <          5.4E-15 Ry

     iteration # 44     ecut=    80.00 Ry     beta= 0.20
     Davidson diagonalization with overlap

---- Real-time Memory Report at c_bands before calling an iterative solver
           128 MiB given to the printing process from OS
            97 MiB allocation reported by mallinfo(arena+hblkhd)
        237789 MiB available memory on the node where the printing process lives
------------------
     ethr =  1.00E-13,  avg # of iterations =  1.0

     total cpu time spent up to now is       42.3 secs

     End of self-consistent calculation

          k = 0.0000 0.0000 0.0000 ( 14855 PWs)   bands (ev):

   -66.6859 -40.8909 -40.6275 -40.6275 -20.1807 -18.8202 -11.7284  -8.5847
    -8.5847  -7.8036  -7.4292  -7.4292  -6.0301

     occupation numbers 
     1.0000   1.0000   1.0000   1.0000   1.0000   1.0000   1.0000   1.0000
     1.0000   1.0000   1.0000   1.0000   1.0000

          k = 0.0000 0.0642 0.0000 ( 14899 PWs)   bands (ev):

   -66.6846 -40.8883 -40.6408 -40.6305 -20.1319 -18.8003 -11.6728  -8.6951
    -8.5334  -8.0760  -7.5088  -7.2272  -6.0476

     occupation numbers 
     1.0000   1.0000   1.0000   1.0000   1.0000   1.0000   1.0000   1.0000
     1.0000   1.0000   1.0000   1.0000   1.0000

          k = 0.0000 0.1283 0.0000 ( 14873 PWs)   bands (ev):

   -66.6807 -40.8808 -40.6790 -40.6392 -19.9887 -18.7418 -11.5163  -8.9873
    -8.5024  -8.3842  -7.7203  -7.0376  -6.1200

     occupation numbers 
     1.0000   1.0000   1.0000   1.0000   1.0000   1.0000   1.0000   1.0000
     1.0000   1.0000   1.0000   1.0000   1.0000

          k = 0.0000 0.1925 0.0000 ( 14829 PWs)   bands (ev):

   -66.6748 -40.8692 -40.7371 -40.6524 -19.7610 -18.6491 -11.2982  -9.3665
    -8.9531  -8.1516  -8.0056  -7.0286  -6.2942

     occupation numbers 
     1.0000   1.0000   1.0000   1.0000   1.0000   1.0000   1.0000   1.0000
     1.0000   1.0000   1.0000   1.0000   1.0000

          k = 0.0000 0.2566 0.0000 ( 14791 PWs)   bands (ev):

   -66.6675 -40.8549 -40.8076 -40.6685 -19.4656 -18.5293 -11.1136  -9.7067
    -9.4093  -8.3099  -7.8608  -7.1836  -6.5781

     occupation numbers 
     1.0000   1.0000   1.0000   1.0000   1.0000   1.0000   1.0000   1.0000
     1.0000   1.0000   1.0000   1.0000   1.0000

          k = 0.0000 0.3208 0.0000 ( 14813 PWs)   bands (ev):

   -66.6597 -40.8819 -40.8396 -40.6857 -19.1272 -18.3936 -11.1226  -9.8727
    -9.8557  -8.5947  -7.5487  -7.4055  -6.8648

     occupation numbers 
     1.0000   1.0000   1.0000   1.0000   1.0000   1.0000   1.0000   1.0000
     1.0000   1.0000   1.0000   1.0000   1.0000

          k = 0.0000 0.3849 0.0000 ( 14770 PWs)   bands (ev):

   -66.6524 -40.9509 -40.8253 -40.7017 -18.7797 -18.2569 -11.3447 -10.2653
    -9.9098  -8.8350  -7.6100  -7.2596  -6.9884

     occupation numbers 
     1.0000   1.0000   1.0000   1.0000   1.0000   1.0000   1.0000   1.0000
     1.0000   1.0000   1.0000   1.0000   1.0000

          k = 0.0000 0.4491 0.0000 ( 14730 PWs)   bands (ev):

   -66.6464 -41.0066 -40.8136 -40.7147 -18.4684 -18.1377 -11.6184 -10.6001
    -9.9818  -9.0155  -7.7592  -7.0348  -6.8919

     occupation numbers 
     1.0000   1.0000   1.0000   1.0000   1.0000   1.0000   1.0000   1.0000
     1.0000   1.0000   1.0000   1.0000   1.0000

          k = 0.0000 0.5132 0.0000 ( 14702 PWs)   bands (ev):

   -66.6425 -41.0427 -40.8059 -40.7232 -18.2474 -18.0555 -11.8267 -10.8207
   -10.0791  -9.1271  -7.8461  -6.8976  -6.7070

     occupation numbers 
     1.0000   1.0000   1.0000   1.0000   1.0000   1.0000   1.0000   1.0000
     1.0000   1.0000   1.0000   1.0000   1.0000

          k = 0.0000-0.5774 0.0000 ( 14710 PWs)   bands (ev):

   -66.6412 -41.0552 -40.8032 -40.7262 -18.1667 -18.0260 -11.9042 -10.8979
   -10.1224  -9.1648  -7.8743  -6.8523  -6.6184

     occupation numbers 
     1.0000   1.0000   1.0000   1.0000   1.0000   1.0000   1.0000   1.0000
     1.0000   1.0000   1.0000   1.0000   1.0000

          k = 0.0556 0.0962 0.0000 ( 14855 PWs)   bands (ev):

   -66.6820 -40.8832 -40.6663 -40.6367 -20.0358 -18.7611 -11.5664  -8.8951
    -8.4344  -8.3756  -7.6824  -7.0506  -6.0924

     occupation numbers 
     1.0000   1.0000   1.0000   1.0000   1.0000   1.0000   1.0000   1.0000
     1.0000   1.0000   1.0000   1.0000   1.0000

          k = 0.0556 0.1604 0.0000 ( 14836 PWs)   bands (ev):

   -66.6771 -40.8736 -40.7136 -40.6484 -19.8503 -18.6854 -11.3762  -9.2266
    -8.7615  -8.2488  -7.9888  -6.9363  -6.2159

     occupation numbers 
     1.0000   1.0000   1.0000   1.0000   1.0000   1.0000   1.0000   1.0000
     1.0000   1.0000   1.0000   1.0000   1.0000

          k = 0.0556 0.2245 0.0000 ( 14814 PWs)   bands (ev):

   -66.6705 -40.8607 -40.7767 -40.6643 -19.5885 -18.5788 -11.1644  -9.5815
    -9.1817  -8.3301  -8.0025  -6.9881  -6.4487

     occupation numbers 
     1.0000   1.0000   1.0000   1.0000   1.0000   1.0000   1.0000   1.0000
     1.0000   1.0000   1.0000   1.0000   1.0000

          k = 0.0556 0.2887 0.0000 ( 14816 PWs)   bands (ev):

   -66.6629 -40.8478 -40.8459 -40.6822 -19.2708 -18.4503 -11.0658  -9.8202
    -9.6263  -8.6326  -7.7420  -7.1745  -6.7320

     occupation numbers 
     1.0000   1.0000   1.0000   1.0000   1.0000   1.0000   1.0000   1.0000
     1.0000   1.0000   1.0000   1.0000   1.0000

          k = 0.0556 0.3528 0.0000 ( 14798 PWs)   bands (ev):

   -66.6554 -40.9180 -40.8312 -40.7001 -18.9262 -18.3127 -11.1984 -10.0687
    -9.8771  -8.8643  -7.5391  -7.4081  -6.8877

     occupation numbers 
     1.0000   1.0000   1.0000   1.0000   1.0000   1.0000   1.0000   1.0000
     1.0000   1.0000   1.0000   1.0000   1.0000

          k = 0.0556 0.4170 0.0000 ( 14759 PWs)   bands (ev):

   -66.6487 -40.9792 -40.8181 -40.7158 -18.5940 -18.1829 -11.4566 -10.4617
    -9.9137  -9.0250  -7.6198  -7.4030  -6.8117

     occupation numbers 
     1.0000   1.0000   1.0000   1.0000   1.0000   1.0000   1.0000   1.0000
     1.0000   1.0000   1.0000   1.0000   1.0000

          k = 0.0556 0.4811 0.0000 ( 14729 PWs)   bands (ev):

   -66.6438 -41.0243 -40.8084 -40.7275 -18.3242 -18.0802 -11.6970 -10.7566
   -10.0108  -9.1245  -7.7732  -7.2640  -6.6350

     occupation numbers 
     1.0000   1.0000   1.0000   1.0000   1.0000   1.0000   1.0000   1.0000
     1.0000   1.0000   1.0000   1.0000   1.0000

          k = 0.0556 0.5453 0.0000 ( 14710 PWs)   bands (ev):

   -66.6412 -41.0481 -40.8032 -40.7336 -18.1704 -18.0230 -11.8385 -10.9147
   -10.0926  -9.1718  -7.8525  -7.1723  -6.4948

     occupation numbers 
     1.0000   1.0000   1.0000   1.0000   1.0000   1.0000   1.0000   1.0000
     1.0000   1.0000   1.0000   1.0000   1.0000

          k = 0.1111 0.1925 0.0000 ( 14799 PWs)   bands (ev):

   -66.6715 -40.8627 -40.7645 -40.6643 -19.6304 -18.5956 -11.1845  -9.5279
    -9.0522  -8.4282  -8.0618  -6.8584  -6.4008

     occupation numbers 
     1.0000   1.0000   1.0000   1.0000   1.0000   1.0000   1.0000   1.0000
     1.0000   1.0000   1.0000   1.0000   1.0000

          k = 0.1111 0.2566 0.0000 ( 14808 PWs)   bands (ev):

   -66.6646 -40.8493 -40.8256 -40.6844 -19.3454 -18.4794 -11.0364  -9.7697
    -9.4017  -8.8368  -7.8855  -6.9208  -6.6426

     occupation numbers 
     1.0000   1.0000   1.0000   1.0000   1.0000   1.0000   1.0000   1.0000
     1.0000   1.0000   1.0000   1.0000   1.0000

          k = 0.1111 0.3208 0.0000 ( 14797 PWs)   bands (ev):

   -66.6573 -40.8897 -40.8350 -40.7062 -19.0195 -18.3472 -11.0710  -9.8557
    -9.8354  -9.0742  -7.8151  -7.1138  -6.7993

     occupation numbers 
     1.0000   1.0000   1.0000   1.0000   1.0000   1.0000   1.0000   1.0000
     1.0000   1.0000   1.0000   1.0000   1.0000

          k = 0.1111 0.3849 0.0000 ( 14773 PWs)   bands (ev):

   -66.6504 -40.9492 -40.8215 -40.7266 -18.6862 -18.2135 -11.2689 -10.3207
    -9.8191  -9.1776  -7.8370  -7.3662  -6.7647

     occupation numbers 
     1.0000   1.0000   1.0000   1.0000   1.0000   1.0000   1.0000   1.0000
     1.0000   1.0000   1.0000   1.0000   1.0000

          k = 0.1111 0.4491 0.0000 ( 14746 PWs)   bands (ev):

   -66.6448 -40.9973 -40.8105 -40.7433 -18.3892 -18.0963 -11.4932 -10.7046
    -9.8877  -9.2060  -7.8039  -7.6082  -6.6129

     occupation numbers 
     1.0000   1.0000   1.0000   1.0000   1.0000   1.0000   1.0000   1.0000
     1.0000   1.0000   1.0000   1.0000   1.0000

          k = 0.1111 0.5132 0.0000 ( 14735 PWs)   bands (ev):

   -66.6412 -41.0285 -40.8033 -40.7542 -18.1797 -18.0152 -11.6589 -10.9553
   -10.0029  -9.1985  -7.7841  -7.7331  -6.4386

     occupation numbers 
     1.0000   1.0000   1.0000   1.0000   1.0000   1.0000   1.0000   1.0000
     1.0000   1.0000   1.0000   1.0000   1.0000

          k = 0.1111 0.5774 0.0000 ( 14718 PWs)   bands (ev):

   -66.6399 -41.0393 -40.8008 -40.7580 -18.1035 -17.9861 -11.7198 -11.0424
   -10.0554  -9.1903  -7.8493  -7.7021  -6.3569

     occupation numbers 
     1.0000   1.0000   1.0000   1.0000   1.0000   1.0000   1.0000   1.0000
     1.0000   1.0000   1.0000   1.0000   1.0000

          k = 0.1667 0.2887 0.0000 ( 14803 PWs)   bands (ev):

   -66.6580 -40.8779 -40.8363 -40.7103 -19.0515 -18.3588 -11.0195  -9.8157
    -9.7224  -9.2222  -7.9244  -6.9769  -6.7696

     occupation numbers 
     1.0000   1.0000   1.0000   1.0000   1.0000   1.0000   1.0000   1.0000
     1.0000   1.0000   1.0000   1.0000   1.0000

          k = 0.1667 0.3528 0.0000 ( 14776 PWs)   bands (ev):

   -66.6514 -40.9280 -40.8233 -40.7378 -18.7347 -18.2288 -11.1379 -10.2057
    -9.7374  -9.3329  -8.1307  -7.1674  -6.7558

     occupation numbers 
     1.0000   1.0000   1.0000   1.0000   1.0000   1.0000   1.0000   1.0000
     1.0000   1.0000   1.0000   1.0000   1.0000

          k = 0.1667 0.4170 0.0000 ( 14761 PWs)   bands (ev):

   -66.6455 -40.9708 -40.8118 -40.7629 -18.4325 -18.1050 -11.2970 -10.6609
    -9.7234  -9.3146  -8.3075  -7.4296  -6.6373

     occupation numbers 
     1.0000   1.0000   1.0000   1.0000   1.0000   1.0000   1.0000   1.0000
     1.0000   1.0000   1.0000   1.0000   1.0000

          k = 0.1667 0.4811 0.0000 ( 14748 PWs)   bands (ev):

   -66.6412 -41.0019 -40.8033 -40.7819 -18.1902 -18.0064 -11.4245 -10.9984
    -9.8484  -9.2410  -8.3478  -7.6851  -6.4529

     occupation numbers 
     1.0000   1.0000   1.0000   1.0000   1.0000   1.0000   1.0000   1.0000
     1.0000   1.0000   1.0000   1.0000   1.0000

          k = 0.1667 0.5453 0.0000 ( 14749 PWs)   bands (ev):

   -66.6389 -41.0183 -40.7987 -40.7921 -18.0536 -17.9512 -11.4918 -11.1774
    -9.9723  -9.1724  -8.3352  -7.8506  -6.2947

     occupation numbers 
     1.0000   1.0000   1.0000   1.0000   1.0000   1.0000   1.0000   1.0000
     1.0000   1.0000   1.0000   1.0000   1.0000

          k = 0.2222 0.3849 0.0000 ( 14759 PWs)   bands (ev):

   -66.6458 -40.9588 -40.8123 -40.7725 -18.4477 -18.1077 -11.2136 -10.6419
    -9.6193  -9.3637  -8.5444  -7.3522  -6.6528

     occupation numbers 
     1.0000   1.0000   1.0000   1.0000   1.0000   1.0000   1.0000   1.0000
     1.0000   1.0000   1.0000   1.0000   1.0000

          k = 0.2222 0.4491 0.0000 ( 14747 PWs)   bands (ev):

   -66.6412 -40.9801 -40.8044 -40.8033 -18.1969 -18.0006 -11.2483 -11.0250
    -9.6389  -9.2738  -8.8531  -7.6094  -6.4780

     occupation numbers 
     1.0000   1.0000   1.0000   1.0000   1.0000   1.0000   1.0000   1.0000
     1.0000   1.0000   1.0000   1.0000   1.0000

          k = 0.2222 0.5132 0.0000 ( 14746 PWs)   bands (ev):

   -66.6382 -40.9919 -40.8273 -40.7974 -18.0236 -17.9258 -11.2793 -11.2335
    -9.8310  -9.1456  -8.9457  -7.8497  -6.2670

     occupation numbers 
     1.0000   1.0000   1.0000   1.0000   1.0000   1.0000   1.0000   1.0000
     1.0000   1.0000   1.0000   1.0000   1.0000

          k = 0.2222 0.5774 0.0000 ( 14774 PWs)   bands (ev):

   -66.6371 -40.9956 -40.8357 -40.7954 -17.9615 -17.8988 -11.3680 -11.2146
    -9.9413  -9.0792  -8.9550  -7.9557  -6.1622

     occupation numbers 
     1.0000   1.0000   1.0000   1.0000   1.0000   1.0000   1.0000   1.0000
     1.0000   1.0000   1.0000   1.0000   1.0000

          k = 0.2778 0.4811 0.0000 ( 14728 PWs)   bands (ev):

   -66.6379 -40.9777 -40.8447 -40.7970 -18.0137 -17.9164 -11.3170 -11.1085
    -9.6688  -9.3054  -9.1341  -7.8480  -6.2586

     occupation numbers 
     1.0000   1.0000   1.0000   1.0000   1.0000   1.0000   1.0000   1.0000
     1.0000   1.0000   1.0000   1.0000   1.0000

          k = 0.2778 0.5453 0.0000 ( 14747 PWs)   bands (ev):

   -66.6362 -40.9695 -40.8729 -40.7936 -17.9131 -17.8690 -11.4767 -10.9305
    -9.9369  -9.4106  -8.9937  -8.0419  -6.0658

     occupation numbers 
     1.0000   1.0000   1.0000   1.0000   1.0000   1.0000   1.0000   1.0000
     1.0000   1.0000   1.0000   1.0000   1.0000

          k = 0.3333 0.5774 0.0000 ( 14760 PWs)   bands (ev):

   -66.6356 -40.9500 -40.9005 -40.7923 -17.8745 -17.8485 -11.5473 -10.6830
   -10.1585  -9.5317  -8.9083  -8.1411  -5.9662

     occupation numbers 
     1.0000   1.0000   1.0000   1.0000   1.0000   1.0000   1.0000   1.0000
     1.0000   1.0000   1.0000   1.0000   1.0000

     highest occupied level (ev):    -5.9662

!    total energy              =    -184.83183127 Ry
     estimated scf accuracy    <          5.6E-16 Ry

     convergence has been achieved in  44 iterations

     Forces acting on atoms (cartesian axes, Ry/au):

     atom    1 type  1   force =     0.00000000    0.00000000    0.00000000
     atom    2 type  2   force =     0.00000000    0.00000000   -0.00065944
     atom    3 type  2   force =     0.00000000   -0.00000000    0.00065944
     The non-local contrib.  to forces
     atom    1 type  1   force =     0.00000000    0.00000000    0.00000000
     atom    2 type  2   force =     0.00000000    0.00000000   -0.25628555
     atom    3 type  2   force =    -0.00000000    0.00000000    0.25628555
     The ionic contribution  to forces
     atom    1 type  1   force =     0.00000001    0.00000097    0.00000000
     atom    2 type  2   force =    -0.00000000   -0.00000048   46.87539245
     atom    3 type  2   force =    -0.00000000   -0.00000048  -46.87539245
     The local contribution  to forces
     atom    1 type  1   force =     0.00000000    0.00002380    0.00000000
     atom    2 type  2   force =    -0.00000001    0.00000001  -46.62397821
     atom    3 type  2   force =    -0.00000001    0.00000001   46.62397821
     The core correction contribution to forces
     atom    1 type  1   force =     0.00000000   -0.00000040   -0.00000000
     atom    2 type  2   force =     0.00000000   -0.00000000    0.00421187
     atom    3 type  2   force =     0.00000000   -0.00000000   -0.00421187
     The Hubbard contrib.    to forces
     atom    1 type  1   force =     0.00000000    0.00000000    0.00000000
     atom    2 type  2   force =     0.00000000    0.00000000    0.00000000
     atom    3 type  2   force =     0.00000000    0.00000000    0.00000000
     The SCF correction term to forces
     atom    1 type  1   force =    -0.00000000    0.00000000   -0.00000000
     atom    2 type  2   force =     0.00000000    0.00000000    0.00000000
     atom    3 type  2   force =     0.00000000    0.00000000   -0.00000000

     Total force =     0.000933     Total SCF correction =     0.000000

     Damped Dynamics Calculation

     Entering Dynamics:    iteration =     1

ATOMIC_POSITIONS (crystal)
Mo               0.3333333000        0.6666666000        0.5000000000    0   0   0
S                0.6666666670        0.3333333330        0.5736257843    0   0   1
S                0.6666666670        0.3333333330        0.4263742157    0   0   1



     Writing config-only to output data dir ./tmp/MoS2.save/ :
     XML data file
     NEW-OLD atomic charge density approx. for the potential

     total cpu time spent up to now is       42.8 secs

     per-process dynamical memory:    94.1 Mb

     Self-consistent Calculation

     iteration #  1     ecut=    80.00 Ry     beta= 0.20
     Davidson diagonalization with overlap

---- Real-time Memory Report at c_bands before calling an iterative solver
           130 MiB given to the printing process from OS
            91 MiB allocation reported by mallinfo(arena+hblkhd)
        237837 MiB available memory on the node where the printing process lives
------------------
     ethr =  1.00E-06,  avg # of iterations =  1.0

     Threshold (ethr) on eigenvalues was too large:
     Diagonalizing with lowered threshold

     Davidson diagonalization with overlap

---- Real-time Memory Report at c_bands before calling an iterative solver
           130 MiB given to the printing process from OS
            91 MiB allocation reported by mallinfo(arena+hblkhd)
        237837 MiB available memory on the node where the printing process lives
------------------
     ethr =  4.41E-10,  avg # of iterations =  4.9

     total cpu time spent up to now is       43.6 secs

     total energy              =    -184.83183162 Ry
     estimated scf accuracy    <          3.3E-09 Ry

     iteration #  2     ecut=    80.00 Ry     beta= 0.20
     Davidson diagonalization with overlap

---- Real-time Memory Report at c_bands before calling an iterative solver
           130 MiB given to the printing process from OS
            93 MiB allocation reported by mallinfo(arena+hblkhd)
        237803 MiB available memory on the node where the printing process lives
------------------
     ethr =  1.28E-11,  avg # of iterations =  6.2

     total cpu time spent up to now is       44.1 secs

     total energy              =    -184.83183162 Ry
     estimated scf accuracy    <          5.5E-09 Ry

     iteration #  3     ecut=    80.00 Ry     beta= 0.20
     Davidson diagonalization with overlap

---- Real-time Memory Report at c_bands before calling an iterative solver
           130 MiB given to the printing process from OS
            93 MiB allocation reported by mallinfo(arena+hblkhd)
        237798 MiB available memory on the node where the printing process lives
------------------
     ethr =  1.28E-11,  avg # of iterations =  1.0

     total cpu time spent up to now is       44.5 secs

     total energy              =    -184.83183162 Ry
     estimated scf accuracy    <          5.0E-09 Ry

     iteration #  4     ecut=    80.00 Ry     beta= 0.20
     Davidson diagonalization with overlap

---- Real-time Memory Report at c_bands before calling an iterative solver
           130 MiB given to the printing process from OS
            95 MiB allocation reported by mallinfo(arena+hblkhd)
        237795 MiB available memory on the node where the printing process lives
------------------
     ethr =  1.28E-11,  avg # of iterations =  6.2

     total cpu time spent up to now is       45.0 secs

     total energy              =    -184.83183162 Ry
     estimated scf accuracy    <       0.00000003 Ry

     iteration #  5     ecut=    80.00 Ry     beta= 0.20
     Davidson diagonalization with overlap

---- Real-time Memory Report at c_bands before calling an iterative solver
           130 MiB given to the printing process from OS
            95 MiB allocation reported by mallinfo(arena+hblkhd)
        237790 MiB available memory on the node where the printing process lives
------------------
     ethr =  1.28E-11,  avg # of iterations =  1.5

     total cpu time spent up to now is       45.4 secs

     total energy              =    -184.83183162 Ry
     estimated scf accuracy    <       0.00000002 Ry

     iteration #  6     ecut=    80.00 Ry     beta= 0.20
     Davidson diagonalization with overlap

---- Real-time Memory Report at c_bands before calling an iterative solver
           130 MiB given to the printing process from OS
            96 MiB allocation reported by mallinfo(arena+hblkhd)
        237788 MiB available memory on the node where the printing process lives
------------------
     ethr =  1.28E-11,  avg # of iterations =  6.0

     total cpu time spent up to now is       46.0 secs

     total energy              =    -184.83183162 Ry
     estimated scf accuracy    <          7.3E-10 Ry

     iteration #  7     ecut=    80.00 Ry     beta= 0.20
     Davidson diagonalization with overlap

---- Real-time Memory Report at c_bands before calling an iterative solver
           130 MiB given to the printing process from OS
            96 MiB allocation reported by mallinfo(arena+hblkhd)
        237786 MiB available memory on the node where the printing process lives
------------------
     ethr =  2.82E-12,  avg # of iterations =  2.0

     total cpu time spent up to now is       46.4 secs

     total energy              =    -184.83183162 Ry
     estimated scf accuracy    <          4.6E-10 Ry

     iteration #  8     ecut=    80.00 Ry     beta= 0.20
     Davidson diagonalization with overlap

---- Real-time Memory Report at c_bands before calling an iterative solver
           130 MiB given to the printing process from OS
            96 MiB allocation reported by mallinfo(arena+hblkhd)
        237774 MiB available memory on the node where the printing process lives
------------------
     ethr =  1.78E-12,  avg # of iterations =  4.5

     total cpu time spent up to now is       46.8 secs

     total energy              =    -184.83183162 Ry
     estimated scf accuracy    <          3.9E-11 Ry

     iteration #  9     ecut=    80.00 Ry     beta= 0.20
     Davidson diagonalization with overlap

---- Real-time Memory Report at c_bands before calling an iterative solver
           131 MiB given to the printing process from OS
            97 MiB allocation reported by mallinfo(arena+hblkhd)
        237773 MiB available memory on the node where the printing process lives
------------------
     ethr =  1.50E-13,  avg # of iterations =  3.9

     total cpu time spent up to now is       47.3 secs

     total energy              =    -184.83183162 Ry
     estimated scf accuracy    <          5.6E-11 Ry

     iteration # 10     ecut=    80.00 Ry     beta= 0.20
     Davidson diagonalization with overlap

---- Real-time Memory Report at c_bands before calling an iterative solver
           131 MiB given to the printing process from OS
            97 MiB allocation reported by mallinfo(arena+hblkhd)
        237772 MiB available memory on the node where the printing process lives
------------------
     ethr =  1.50E-13,  avg # of iterations =  6.1

     total cpu time spent up to now is       47.8 secs

     total energy              =    -184.83183162 Ry
     estimated scf accuracy    <          3.8E-11 Ry

     iteration # 11     ecut=    80.00 Ry     beta= 0.20
     Davidson diagonalization with overlap

---- Real-time Memory Report at c_bands before calling an iterative solver
           131 MiB given to the printing process from OS
            97 MiB allocation reported by mallinfo(arena+hblkhd)
        237773 MiB available memory on the node where the printing process lives
------------------
     ethr =  1.48E-13,  avg # of iterations =  1.1

     total cpu time spent up to now is       48.2 secs

     total energy              =    -184.83183162 Ry
     estimated scf accuracy    <          2.5E-11 Ry

     iteration # 12     ecut=    80.00 Ry     beta= 0.20
     Davidson diagonalization with overlap

---- Real-time Memory Report at c_bands before calling an iterative solver
           131 MiB given to the printing process from OS
            97 MiB allocation reported by mallinfo(arena+hblkhd)
        237772 MiB available memory on the node where the printing process lives
------------------
     ethr =  1.00E-13,  avg # of iterations =  4.5

     total cpu time spent up to now is       48.6 secs

     total energy              =    -184.83183162 Ry
     estimated scf accuracy    <          2.3E-12 Ry

     iteration # 13     ecut=    80.00 Ry     beta= 0.20
     Davidson diagonalization with overlap

---- Real-time Memory Report at c_bands before calling an iterative solver
           131 MiB given to the printing process from OS
            97 MiB allocation reported by mallinfo(arena+hblkhd)
        237776 MiB available memory on the node where the printing process lives
------------------
     ethr =  1.00E-13,  avg # of iterations =  1.0

     total cpu time spent up to now is       49.0 secs

     total energy              =    -184.83183162 Ry
     estimated scf accuracy    <          1.4E-12 Ry

     iteration # 14     ecut=    80.00 Ry     beta= 0.20
     Davidson diagonalization with overlap

---- Real-time Memory Report at c_bands before calling an iterative solver
           131 MiB given to the printing process from OS
            97 MiB allocation reported by mallinfo(arena+hblkhd)
        237776 MiB available memory on the node where the printing process lives
------------------
     ethr =  1.00E-13,  avg # of iterations =  1.0

     total cpu time spent up to now is       49.3 secs

     total energy              =    -184.83183162 Ry
     estimated scf accuracy    <          3.8E-13 Ry

     iteration # 15     ecut=    80.00 Ry     beta= 0.20
     Davidson diagonalization with overlap

---- Real-time Memory Report at c_bands before calling an iterative solver
           131 MiB given to the printing process from OS
            97 MiB allocation reported by mallinfo(arena+hblkhd)
        237776 MiB available memory on the node where the printing process lives
------------------
     ethr =  1.00E-13,  avg # of iterations =  1.0

     total cpu time spent up to now is       49.7 secs

     total energy              =    -184.83183162 Ry
     estimated scf accuracy    <          1.1E-12 Ry

     iteration # 16     ecut=    80.00 Ry     beta= 0.20
     Davidson diagonalization with overlap

---- Real-time Memory Report at c_bands before calling an iterative solver
           131 MiB given to the printing process from OS
            97 MiB allocation reported by mallinfo(arena+hblkhd)
        237773 MiB available memory on the node where the printing process lives
------------------
     ethr =  1.00E-13,  avg # of iterations =  1.0

     total cpu time spent up to now is       50.1 secs

     total energy              =    -184.83183162 Ry
     estimated scf accuracy    <          6.5E-13 Ry

     iteration # 17     ecut=    80.00 Ry     beta= 0.20
     Davidson diagonalization with overlap

---- Real-time Memory Report at c_bands before calling an iterative solver
           131 MiB given to the printing process from OS
            97 MiB allocation reported by mallinfo(arena+hblkhd)
        237775 MiB available memory on the node where the printing process lives
------------------
     ethr =  1.00E-13,  avg # of iterations =  1.0

     total cpu time spent up to now is       50.4 secs

     total energy              =    -184.83183162 Ry
     estimated scf accuracy    <          1.8E-12 Ry

     iteration # 18     ecut=    80.00 Ry     beta= 0.20
     Davidson diagonalization with overlap

---- Real-time Memory Report at c_bands before calling an iterative solver
           131 MiB given to the printing process from OS
            97 MiB allocation reported by mallinfo(arena+hblkhd)
        237777 MiB available memory on the node where the printing process lives
------------------
     ethr =  1.00E-13,  avg # of iterations =  1.0

     total cpu time spent up to now is       50.8 secs

     total energy              =    -184.83183162 Ry
     estimated scf accuracy    <          1.9E-12 Ry

     iteration # 19     ecut=    80.00 Ry     beta= 0.20
     Davidson diagonalization with overlap

---- Real-time Memory Report at c_bands before calling an iterative solver
           131 MiB given to the printing process from OS
            97 MiB allocation reported by mallinfo(arena+hblkhd)
        237776 MiB available memory on the node where the printing process lives
------------------
     ethr =  1.00E-13,  avg # of iterations =  1.0

     total cpu time spent up to now is       51.1 secs

     total energy              =    -184.83183162 Ry
     estimated scf accuracy    <          1.6E-12 Ry

     iteration # 20     ecut=    80.00 Ry     beta= 0.20
     Davidson diagonalization with overlap

---- Real-time Memory Report at c_bands before calling an iterative solver
           131 MiB given to the printing process from OS
            97 MiB allocation reported by mallinfo(arena+hblkhd)
        237777 MiB available memory on the node where the printing process lives
------------------
     ethr =  1.00E-13,  avg # of iterations =  1.0

     total cpu time spent up to now is       51.5 secs

     total energy              =    -184.83183162 Ry
     estimated scf accuracy    <          1.4E-12 Ry

     iteration # 21     ecut=    80.00 Ry     beta= 0.20
     Davidson diagonalization with overlap

---- Real-time Memory Report at c_bands before calling an iterative solver
           131 MiB given to the printing process from OS
            97 MiB allocation reported by mallinfo(arena+hblkhd)
        237777 MiB available memory on the node where the printing process lives
------------------
     ethr =  1.00E-13,  avg # of iterations =  1.3

     total cpu time spent up to now is       51.9 secs

     total energy              =    -184.83183162 Ry
     estimated scf accuracy    <          6.8E-13 Ry

     iteration # 22     ecut=    80.00 Ry     beta= 0.20
     Davidson diagonalization with overlap

---- Real-time Memory Report at c_bands before calling an iterative solver
           131 MiB given to the printing process from OS
            97 MiB allocation reported by mallinfo(arena+hblkhd)
        237777 MiB available memory on the node where the printing process lives
------------------
     ethr =  1.00E-13,  avg # of iterations =  1.0

     total cpu time spent up to now is       52.2 secs

     total energy              =    -184.83183162 Ry
     estimated scf accuracy    <          2.1E-14 Ry

     iteration # 23     ecut=    80.00 Ry     beta= 0.20
     Davidson diagonalization with overlap

---- Real-time Memory Report at c_bands before calling an iterative solver
           131 MiB given to the printing process from OS
            97 MiB allocation reported by mallinfo(arena+hblkhd)
        237778 MiB available memory on the node where the printing process lives
------------------
     ethr =  1.00E-13,  avg # of iterations =  1.0

     total cpu time spent up to now is       52.6 secs

     total energy              =    -184.83183162 Ry
     estimated scf accuracy    <          8.1E-15 Ry

     iteration # 24     ecut=    80.00 Ry     beta= 0.20
     Davidson diagonalization with overlap

---- Real-time Memory Report at c_bands before calling an iterative solver
           131 MiB given to the printing process from OS
            97 MiB allocation reported by mallinfo(arena+hblkhd)
        237779 MiB available memory on the node where the printing process lives
------------------
     ethr =  1.00E-13,  avg # of iterations =  1.0

     total cpu time spent up to now is       53.0 secs

     total energy              =    -184.83183162 Ry
     estimated scf accuracy    <          5.3E-15 Ry

     iteration # 25     ecut=    80.00 Ry     beta= 0.20
     Davidson diagonalization with overlap

---- Real-time Memory Report at c_bands before calling an iterative solver
           131 MiB given to the printing process from OS
            97 MiB allocation reported by mallinfo(arena+hblkhd)
        237778 MiB available memory on the node where the printing process lives
------------------
     ethr =  1.00E-13,  avg # of iterations =  1.0

     total cpu time spent up to now is       53.3 secs

     total energy              =    -184.83183162 Ry
     estimated scf accuracy    <          4.1E-15 Ry

     iteration # 26     ecut=    80.00 Ry     beta= 0.20
     Davidson diagonalization with overlap

---- Real-time Memory Report at c_bands before calling an iterative solver
           131 MiB given to the printing process from OS
            97 MiB allocation reported by mallinfo(arena+hblkhd)
        237781 MiB available memory on the node where the printing process lives
------------------
     ethr =  1.00E-13,  avg # of iterations =  1.0

     total cpu time spent up to now is       53.7 secs

     End of self-consistent calculation

          k = 0.0000 0.0000 0.0000 ( 14855 PWs)   bands (ev):

   -66.6860 -40.8911 -40.6277 -40.6277 -20.1814 -18.8203 -11.7290  -8.5857
    -8.5857  -7.8033  -7.4301  -7.4301  -6.0297

     occupation numbers 
     1.0000   1.0000   1.0000   1.0000   1.0000   1.0000   1.0000   1.0000
     1.0000   1.0000   1.0000   1.0000   1.0000

          k = 0.0000 0.0642 0.0000 ( 14899 PWs)   bands (ev):

   -66.6846 -40.8884 -40.6410 -40.6307 -20.1325 -18.8004 -11.6733  -8.6962
    -8.5345  -8.0761  -7.5096  -7.2276  -6.0471

     occupation numbers 
     1.0000   1.0000   1.0000   1.0000   1.0000   1.0000   1.0000   1.0000
     1.0000   1.0000   1.0000   1.0000   1.0000

          k = 0.0000 0.1283 0.0000 ( 14873 PWs)   bands (ev):

   -66.6808 -40.8809 -40.6792 -40.6393 -19.9893 -18.7420 -11.5169  -8.9883
    -8.5027  -8.3852  -7.7211  -7.0378  -6.1197

     occupation numbers 
     1.0000   1.0000   1.0000   1.0000   1.0000   1.0000   1.0000   1.0000
     1.0000   1.0000   1.0000   1.0000   1.0000

          k = 0.0000 0.1925 0.0000 ( 14829 PWs)   bands (ev):

   -66.6748 -40.8693 -40.7373 -40.6525 -19.7616 -18.6492 -11.2989  -9.3673
    -8.9535  -8.1526  -8.0064  -7.0286  -6.2940

     occupation numbers 
     1.0000   1.0000   1.0000   1.0000   1.0000   1.0000   1.0000   1.0000
     1.0000   1.0000   1.0000   1.0000   1.0000

          k = 0.0000 0.2566 0.0000 ( 14791 PWs)   bands (ev):

   -66.6675 -40.8550 -40.8078 -40.6687 -19.4662 -18.5295 -11.1143  -9.7074
    -9.4097  -8.3107  -7.8618  -7.1834  -6.5780

     occupation numbers 
     1.0000   1.0000   1.0000   1.0000   1.0000   1.0000   1.0000   1.0000
     1.0000   1.0000   1.0000   1.0000   1.0000

          k = 0.0000 0.3208 0.0000 ( 14813 PWs)   bands (ev):

   -66.6598 -40.8820 -40.8398 -40.6858 -19.1278 -18.3939 -11.1234  -9.8732
    -9.8561  -8.5955  -7.5496  -7.4053  -6.8648

     occupation numbers 
     1.0000   1.0000   1.0000   1.0000   1.0000   1.0000   1.0000   1.0000
     1.0000   1.0000   1.0000   1.0000   1.0000

          k = 0.0000 0.3849 0.0000 ( 14770 PWs)   bands (ev):

   -66.6525 -40.9510 -40.8254 -40.7019 -18.7803 -18.2572 -11.3455 -10.2657
    -9.9102  -8.8358  -7.6097  -7.2604  -6.9885

     occupation numbers 
     1.0000   1.0000   1.0000   1.0000   1.0000   1.0000   1.0000   1.0000
     1.0000   1.0000   1.0000   1.0000   1.0000

          k = 0.0000 0.4491 0.0000 ( 14730 PWs)   bands (ev):

   -66.6465 -41.0068 -40.8137 -40.7149 -18.4690 -18.1380 -11.6191 -10.6004
    -9.9823  -9.0164  -7.7589  -7.0355  -6.8921

     occupation numbers 
     1.0000   1.0000   1.0000   1.0000   1.0000   1.0000   1.0000   1.0000
     1.0000   1.0000   1.0000   1.0000   1.0000

          k = 0.0000 0.5132 0.0000 ( 14702 PWs)   bands (ev):

[...]
            93 MiB allocation reported by mallinfo(arena+hblkhd)
        237791 MiB available memory on the node where the printing process lives
------------------
     ethr =  1.00E-13,  avg # of iterations =  1.0

     total cpu time spent up to now is      151.7 secs

     total energy              =    -184.83183236 Ry
     estimated scf accuracy    <          1.3E-14 Ry

     iteration #  3     ecut=    80.00 Ry     beta= 0.20
     Davidson diagonalization with overlap

---- Real-time Memory Report at c_bands before calling an iterative solver
           132 MiB given to the printing process from OS
            93 MiB allocation reported by mallinfo(arena+hblkhd)
        237780 MiB available memory on the node where the printing process lives
------------------
     ethr =  1.00E-13,  avg # of iterations =  1.0

     total cpu time spent up to now is      152.1 secs

     total energy              =    -184.83183236 Ry
     estimated scf accuracy    <          6.8E-15 Ry

     iteration #  4     ecut=    80.00 Ry     beta= 0.20
     Davidson diagonalization with overlap

---- Real-time Memory Report at c_bands before calling an iterative solver
           132 MiB given to the printing process from OS
            94 MiB allocation reported by mallinfo(arena+hblkhd)
        237776 MiB available memory on the node where the printing process lives
------------------
     ethr =  1.00E-13,  avg # of iterations =  1.0

     total cpu time spent up to now is      152.4 secs

     End of self-consistent calculation

          k = 0.0000 0.0000 0.0000 ( 14855 PWs)   bands (ev):

   -66.6863 -40.8916 -40.6284 -40.6284 -20.1843 -18.8206 -11.7317  -8.5906
    -8.5906  -7.8020  -7.4339  -7.4339  -6.0277

     occupation numbers 
     1.0000   1.0000   1.0000   1.0000   1.0000   1.0000   1.0000   1.0000
     1.0000   1.0000   1.0000   1.0000   1.0000

          k = 0.0000 0.0642 0.0000 ( 14899 PWs)   bands (ev):

   -66.6849 -40.8890 -40.6417 -40.6314 -20.1354 -18.8007 -11.6761  -8.7010
    -8.5393  -8.0767  -7.5135  -7.2294  -6.0452

     occupation numbers 
     1.0000   1.0000   1.0000   1.0000   1.0000   1.0000   1.0000   1.0000
     1.0000   1.0000   1.0000   1.0000   1.0000

          k = 0.0000 0.1283 0.0000 ( 14873 PWs)   bands (ev):

   -66.6811 -40.8814 -40.6799 -40.6400 -19.9921 -18.7424 -11.5197  -8.9929
    -8.5041  -8.3900  -7.7250  -7.0385  -6.1181

     occupation numbers 
     1.0000   1.0000   1.0000   1.0000   1.0000   1.0000   1.0000   1.0000
     1.0000   1.0000   1.0000   1.0000   1.0000

          k = 0.0000 0.1925 0.0000 ( 14829 PWs)   bands (ev):

   -66.6751 -40.8698 -40.7380 -40.6532 -19.7644 -18.6499 -11.3019  -9.3715
    -8.9553  -8.1572  -8.0102  -7.0285  -6.2930

     occupation numbers 
     1.0000   1.0000   1.0000   1.0000   1.0000   1.0000   1.0000   1.0000
     1.0000   1.0000   1.0000   1.0000   1.0000

          k = 0.0000 0.2566 0.0000 ( 14791 PWs)   bands (ev):

   -66.6678 -40.8555 -40.8086 -40.6694 -19.4690 -18.5304 -11.1178  -9.7107
    -9.4117  -8.3146  -7.8662  -7.1828  -6.5776

     occupation numbers 
     1.0000   1.0000   1.0000   1.0000   1.0000   1.0000   1.0000   1.0000
     1.0000   1.0000   1.0000   1.0000   1.0000

          k = 0.0000 0.3208 0.0000 ( 14813 PWs)   bands (ev):

   -66.6601 -40.8829 -40.8403 -40.6865 -19.1305 -18.3950 -11.1273  -9.8755
    -9.8580  -8.5994  -7.5537  -7.4043  -6.8650

     occupation numbers 
     1.0000   1.0000   1.0000   1.0000   1.0000   1.0000   1.0000   1.0000
     1.0000   1.0000   1.0000   1.0000   1.0000

          k = 0.0000 0.3849 0.0000 ( 14770 PWs)   bands (ev):

   -66.6527 -40.9519 -40.8259 -40.7026 -18.7831 -18.2586 -11.3491 -10.2674
    -9.9122  -8.8397  -7.6086  -7.2641  -6.9892

     occupation numbers 
     1.0000   1.0000   1.0000   1.0000   1.0000   1.0000   1.0000   1.0000
     1.0000   1.0000   1.0000   1.0000   1.0000

          k = 0.0000 0.4491 0.0000 ( 14730 PWs)   bands (ev):

   -66.6468 -41.0076 -40.8142 -40.7156 -18.4718 -18.1397 -11.6222 -10.6018
    -9.9844  -9.0203  -7.7578  -7.0387  -6.8929

     occupation numbers 
     1.0000   1.0000   1.0000   1.0000   1.0000   1.0000   1.0000   1.0000
     1.0000   1.0000   1.0000   1.0000   1.0000

          k = 0.0000 0.5132 0.0000 ( 14702 PWs)   bands (ev):

   -66.6429 -41.0438 -40.8065 -40.7241 -18.2509 -18.0578 -11.8299 -10.8221
   -10.0819  -9.1318  -7.8447  -6.9011  -6.7078

     occupation numbers 
     1.0000   1.0000   1.0000   1.0000   1.0000   1.0000   1.0000   1.0000
     1.0000   1.0000   1.0000   1.0000   1.0000

          k = 0.0000-0.5774 0.0000 ( 14710 PWs)   bands (ev):

   -66.6415 -41.0563 -40.8038 -40.7271 -18.1702 -18.0284 -11.9071 -10.8992
   -10.1254  -9.1695  -7.8729  -6.8557  -6.6191

     occupation numbers 
     1.0000   1.0000   1.0000   1.0000   1.0000   1.0000   1.0000   1.0000
     1.0000   1.0000   1.0000   1.0000   1.0000

          k = 0.0556 0.0962 0.0000 ( 14855 PWs)   bands (ev):

   -66.6823 -40.8839 -40.6671 -40.6375 -20.0393 -18.7616 -11.5697  -8.9008
    -8.4402  -8.3771  -7.6870  -7.0519  -6.0903

     occupation numbers 
     1.0000   1.0000   1.0000   1.0000   1.0000   1.0000   1.0000   1.0000
     1.0000   1.0000   1.0000   1.0000   1.0000

          k = 0.0556 0.1604 0.0000 ( 14836 PWs)   bands (ev):

   -66.6774 -40.8743 -40.7145 -40.6493 -19.8537 -18.6861 -11.3798  -9.2318
    -8.7635  -8.2545  -7.9933  -6.9367  -6.2144

     occupation numbers 
     1.0000   1.0000   1.0000   1.0000   1.0000   1.0000   1.0000   1.0000
     1.0000   1.0000   1.0000   1.0000   1.0000

          k = 0.0556 0.2245 0.0000 ( 14814 PWs)   bands (ev):

   -66.6708 -40.8613 -40.7776 -40.6651 -19.5919 -18.5797 -11.1683  -9.5860
    -9.1840  -8.3345  -8.0080  -6.9879  -6.4480

     occupation numbers 
     1.0000   1.0000   1.0000   1.0000   1.0000   1.0000   1.0000   1.0000
     1.0000   1.0000   1.0000   1.0000   1.0000

          k = 0.0556 0.2887 0.0000 ( 14816 PWs)   bands (ev):

   -66.6633 -40.8487 -40.8466 -40.6831 -19.2741 -18.4515 -11.0703  -9.8235
    -9.6288  -8.6368  -7.7470  -7.1738  -6.7321

     occupation numbers 
     1.0000   1.0000   1.0000   1.0000   1.0000   1.0000   1.0000   1.0000
     1.0000   1.0000   1.0000   1.0000   1.0000

          k = 0.0556 0.3528 0.0000 ( 14798 PWs)   bands (ev):

   -66.6557 -40.9190 -40.8318 -40.7010 -18.9296 -18.3143 -11.2030 -10.0710
    -9.8796  -8.8685  -7.5431  -7.4071  -6.8890

     occupation numbers 
     1.0000   1.0000   1.0000   1.0000   1.0000   1.0000   1.0000   1.0000
     1.0000   1.0000   1.0000   1.0000   1.0000

          k = 0.0556 0.4170 0.0000 ( 14759 PWs)   bands (ev):

   -66.6491 -40.9803 -40.8187 -40.7167 -18.5974 -18.1848 -11.4607 -10.4638
    -9.9161  -9.0292  -7.6187  -7.4061  -6.8137

     occupation numbers 
     1.0000   1.0000   1.0000   1.0000   1.0000   1.0000   1.0000   1.0000
     1.0000   1.0000   1.0000   1.0000   1.0000

          k = 0.0556 0.4811 0.0000 ( 14729 PWs)   bands (ev):

   -66.6441 -41.0253 -40.8090 -40.7283 -18.3276 -18.0823 -11.7004 -10.7584
   -10.0134  -9.1287  -7.7719  -7.2666  -6.6370

     occupation numbers 
     1.0000   1.0000   1.0000   1.0000   1.0000   1.0000   1.0000   1.0000
     1.0000   1.0000   1.0000   1.0000   1.0000

          k = 0.0556 0.5453 0.0000 ( 14710 PWs)   bands (ev):

   -66.6415 -41.0492 -40.8038 -40.7345 -18.1739 -18.0253 -11.8415 -10.9164
   -10.0955  -9.1761  -7.8512  -7.1747  -6.4965

     occupation numbers 
     1.0000   1.0000   1.0000   1.0000   1.0000   1.0000   1.0000   1.0000
     1.0000   1.0000   1.0000   1.0000   1.0000

          k = 0.1111 0.1925 0.0000 ( 14799 PWs)   bands (ev):

   -66.6718 -40.8634 -40.7654 -40.6651 -19.6338 -18.5965 -11.1883  -9.5326
    -9.0545  -8.4324  -8.0672  -6.8584  -6.4000

     occupation numbers 
     1.0000   1.0000   1.0000   1.0000   1.0000   1.0000   1.0000   1.0000
     1.0000   1.0000   1.0000   1.0000   1.0000

          k = 0.1111 0.2566 0.0000 ( 14808 PWs)   bands (ev):

   -66.6650 -40.8499 -40.8266 -40.6853 -19.3488 -18.4806 -11.0408  -9.7734
    -9.4043  -8.8406  -7.8903  -6.9205  -6.6427

     occupation numbers 
     1.0000   1.0000   1.0000   1.0000   1.0000   1.0000   1.0000   1.0000
     1.0000   1.0000   1.0000   1.0000   1.0000

          k = 0.1111 0.3208 0.0000 ( 14797 PWs)   bands (ev):

   -66.6577 -40.8907 -40.8356 -40.7070 -19.0228 -18.3487 -11.0758  -9.8586
    -9.8380  -9.0774  -7.8189  -7.1132  -6.8007

     occupation numbers 
     1.0000   1.0000   1.0000   1.0000   1.0000   1.0000   1.0000   1.0000
     1.0000   1.0000   1.0000   1.0000   1.0000

          k = 0.1111 0.3849 0.0000 ( 14773 PWs)   bands (ev):

   -66.6508 -40.9503 -40.8221 -40.7275 -18.6895 -18.2153 -11.2733 -10.3235
    -9.8214  -9.1807  -7.8399  -7.3654  -6.7669

     occupation numbers 
     1.0000   1.0000   1.0000   1.0000   1.0000   1.0000   1.0000   1.0000
     1.0000   1.0000   1.0000   1.0000   1.0000

          k = 0.1111 0.4491 0.0000 ( 14746 PWs)   bands (ev):

   -66.6452 -40.9984 -40.8111 -40.7442 -18.3926 -18.0984 -11.4969 -10.7073
    -9.8902  -9.2091  -7.8064  -7.6072  -6.6152

     occupation numbers 
     1.0000   1.0000   1.0000   1.0000   1.0000   1.0000   1.0000   1.0000
     1.0000   1.0000   1.0000   1.0000   1.0000

          k = 0.1111 0.5132 0.0000 ( 14735 PWs)   bands (ev):

   -66.6415 -41.0296 -40.8039 -40.7551 -18.1832 -18.0175 -11.6620 -10.9578
   -10.0057  -9.2017  -7.7829  -7.7353  -6.4407

     occupation numbers 
     1.0000   1.0000   1.0000   1.0000   1.0000   1.0000   1.0000   1.0000
     1.0000   1.0000   1.0000   1.0000   1.0000

          k = 0.1111 0.5774 0.0000 ( 14718 PWs)   bands (ev):

   -66.6402 -41.0404 -40.8013 -40.7589 -18.1070 -17.9885 -11.7226 -11.0448
   -10.0585  -9.1935  -7.8480  -7.7042  -6.3589

     occupation numbers 
     1.0000   1.0000   1.0000   1.0000   1.0000   1.0000   1.0000   1.0000
     1.0000   1.0000   1.0000   1.0000   1.0000

          k = 0.1667 0.2887 0.0000 ( 14803 PWs)   bands (ev):

   -66.6583 -40.8789 -40.8369 -40.7111 -19.0548 -18.3603 -11.0243  -9.8184
    -9.7257  -9.2248  -7.9282  -6.9763  -6.7709

     occupation numbers 
     1.0000   1.0000   1.0000   1.0000   1.0000   1.0000   1.0000   1.0000
     1.0000   1.0000   1.0000   1.0000   1.0000

          k = 0.1667 0.3528 0.0000 ( 14776 PWs)   bands (ev):

   -66.6517 -40.9290 -40.8239 -40.7387 -18.7381 -18.2305 -11.1425 -10.2092
    -9.7398  -9.3350  -8.1336  -7.1666  -6.7580

     occupation numbers 
     1.0000   1.0000   1.0000   1.0000   1.0000   1.0000   1.0000   1.0000
     1.0000   1.0000   1.0000   1.0000   1.0000

          k = 0.1667 0.4170 0.0000 ( 14761 PWs)   bands (ev):

   -66.6459 -40.9718 -40.8124 -40.7638 -18.4359 -18.1071 -11.3011 -10.6643
    -9.7257  -9.3166  -8.3101  -7.4287  -6.6397

     occupation numbers 
     1.0000   1.0000   1.0000   1.0000   1.0000   1.0000   1.0000   1.0000
     1.0000   1.0000   1.0000   1.0000   1.0000

          k = 0.1667 0.4811 0.0000 ( 14748 PWs)   bands (ev):

   -66.6415 -41.0030 -40.8039 -40.7828 -18.1936 -18.0086 -11.4279 -11.0017
    -9.8511  -9.2429  -8.3501  -7.6841  -6.4552

     occupation numbers 
     1.0000   1.0000   1.0000   1.0000   1.0000   1.0000   1.0000   1.0000
     1.0000   1.0000   1.0000   1.0000   1.0000

          k = 0.1667 0.5453 0.0000 ( 14749 PWs)   bands (ev):

   -66.6392 -41.0194 -40.7993 -40.7931 -18.0572 -17.9535 -11.4947 -11.1806
    -9.9753  -9.1744  -8.3372  -7.8494  -6.2968

     occupation numbers 
     1.0000   1.0000   1.0000   1.0000   1.0000   1.0000   1.0000   1.0000
     1.0000   1.0000   1.0000   1.0000   1.0000

          k = 0.2222 0.3849 0.0000 ( 14759 PWs)   bands (ev):

   -66.6461 -40.9598 -40.8129 -40.7734 -18.4511 -18.1097 -11.2178 -10.6458
    -9.6215  -9.3652  -8.5469  -7.3513  -6.6552

     occupation numbers 
     1.0000   1.0000   1.0000   1.0000   1.0000   1.0000   1.0000   1.0000
     1.0000   1.0000   1.0000   1.0000   1.0000

          k = 0.2222 0.4491 0.0000 ( 14747 PWs)   bands (ev):

   -66.6415 -40.9812 -40.8054 -40.8039 -18.2004 -18.0028 -11.2518 -11.0289
    -9.6412  -9.2750  -8.8555  -7.6084  -6.4804

     occupation numbers 
     1.0000   1.0000   1.0000   1.0000   1.0000   1.0000   1.0000   1.0000
     1.0000   1.0000   1.0000   1.0000   1.0000

          k = 0.2222 0.5132 0.0000 ( 14746 PWs)   bands (ev):

   -66.6385 -40.9930 -40.8282 -40.7980 -18.0272 -17.9282 -11.2831 -11.2364
    -9.8337  -9.1467  -8.9479  -7.8486  -6.2692

     occupation numbers 
     1.0000   1.0000   1.0000   1.0000   1.0000   1.0000   1.0000   1.0000
     1.0000   1.0000   1.0000   1.0000   1.0000

          k = 0.2222 0.5774 0.0000 ( 14774 PWs)   bands (ev):

   -66.6375 -40.9967 -40.8366 -40.7960 -17.9650 -17.9012 -11.3718 -11.2172
    -9.9444  -9.0803  -8.9571  -7.9546  -6.1643

     occupation numbers 
     1.0000   1.0000   1.0000   1.0000   1.0000   1.0000   1.0000   1.0000
     1.0000   1.0000   1.0000   1.0000   1.0000

          k = 0.2778 0.4811 0.0000 ( 14728 PWs)   bands (ev):

   -66.6383 -40.9788 -40.8456 -40.7976 -18.0172 -17.9188 -11.3210 -11.1115
    -9.6712  -9.3079  -9.1348  -7.8470  -6.2608

     occupation numbers 
     1.0000   1.0000   1.0000   1.0000   1.0000   1.0000   1.0000   1.0000
     1.0000   1.0000   1.0000   1.0000   1.0000

          k = 0.2778 0.5453 0.0000 ( 14747 PWs)   bands (ev):

   -66.6366 -40.9706 -40.8739 -40.7942 -17.9167 -17.8715 -11.4808 -10.9331
    -9.9397  -9.4130  -8.9943  -8.0409  -6.0677

     occupation numbers 
     1.0000   1.0000   1.0000   1.0000   1.0000   1.0000   1.0000   1.0000
     1.0000   1.0000   1.0000   1.0000   1.0000

          k = 0.3333 0.5774 0.0000 ( 14760 PWs)   bands (ev):

   -66.6359 -40.9511 -40.9015 -40.7929 -17.8780 -17.8510 -11.5515 -10.6852
   -10.1613  -9.5343  -8.9087  -8.1401  -5.9679

     occupation numbers 
     1.0000   1.0000   1.0000   1.0000   1.0000   1.0000   1.0000   1.0000
     1.0000   1.0000   1.0000   1.0000   1.0000

     highest occupied level (ev):    -5.9679

!    total energy              =    -184.83183236 Ry
     estimated scf accuracy    <          8.4E-16 Ry

     convergence has been achieved in   4 iterations

     Forces acting on atoms (cartesian axes, Ry/au):

     atom    1 type  1   force =     0.00000000    0.00000000    0.00000000
     atom    2 type  2   force =     0.00000000    0.00000000    0.00000005
     atom    3 type  2   force =     0.00000000   -0.00000000   -0.00000005
     The non-local contrib.  to forces
     atom    1 type  1   force =     0.00000000    0.00000000    0.00000000
     atom    2 type  2   force =    -0.00000000   -0.00000000   -0.25587880
     atom    3 type  2   force =     0.00000000    0.00000000    0.25587880
     The ionic contribution  to forces
     atom    1 type  1   force =     0.00000001    0.00000097    0.00000000
     atom    2 type  2   force =    -0.00000000   -0.00000048   46.87100279
     atom    3 type  2   force =    -0.00000000   -0.00000048  -46.87100279
     The local contribution  to forces
     atom    1 type  1   force =    -0.00000000    0.00002380    0.00000000
     atom    2 type  2   force =    -0.00000001    0.00000001  -46.61930737
     atom    3 type  2   force =    -0.00000001    0.00000001   46.61930737
     The core correction contribution to forces
     atom    1 type  1   force =     0.00000000   -0.00000040   -0.00000000
     atom    2 type  2   force =     0.00000000   -0.00000000    0.00418348
     atom    3 type  2   force =     0.00000000   -0.00000000   -0.00418348
     The Hubbard contrib.    to forces
     atom    1 type  1   force =     0.00000000    0.00000000    0.00000000
     atom    2 type  2   force =     0.00000000    0.00000000    0.00000000
     atom    3 type  2   force =     0.00000000    0.00000000    0.00000000
     The SCF correction term to forces
     atom    1 type  1   force =     0.00000000    0.00000000    0.00000000
     atom    2 type  2   force =     0.00000000    0.00000000   -0.00000005
     atom    3 type  2   force =     0.00000000    0.00000000    0.00000005

     Total force =     0.000000     Total SCF correction =     0.000000
     SCF correction compared to forces is large: reduce conv_thr to get better values

     Damped Dynamics: convergence achieved in  11 steps

     End of damped dynamics calculation

     Final energy =    -184.8318323571 Ry

Begin final coordinates
     new unit-cell volume =   1222.67245 a.u.^3 (   181.18136 Ang^3 )
     density =      1.46714 g/cm^3

CELL_PARAMETERS (alat=  5.94125432)
   1.000000000   0.000000000   0.000000000
  -0.500000000   0.866025404   0.000000000
   0.000000000   0.000000000   6.732014870

ATOMIC_POSITIONS (crystal)
Mo               0.3333333000        0.6666666000        0.5000000000    0   0   0
S                0.6666666670        0.3333333330        0.5735918455    0   0   1
S                0.6666666670        0.3333333330        0.4264081545    0   0   1
End final coordinates



     Writing all to output data dir ./tmp/MoS2.save/ :
     XML data file, charge density, pseudopotentials, collected wavefunctions

     init_run     :      1.29s CPU      1.50s WALL (       1 calls)
     electrons    :    115.41s CPU    128.99s WALL (      12 calls)
     update_pot   :      1.11s CPU      1.39s WALL (      11 calls)
     forces       :      2.12s CPU      2.33s WALL (      12 calls)

     Called by init_run:
     wfcinit      :      0.12s CPU      0.17s WALL (       1 calls)
     wfcinit:atom :      0.00s CPU      0.00s WALL (       5 calls)
     wfcinit:wfcr :      0.10s CPU      0.15s WALL (       5 calls)
     potinit      :      0.72s CPU      0.79s WALL (       1 calls)
     hinit0       :      0.29s CPU      0.36s WALL (       1 calls)

     Called by electrons:
     c_bands      :     66.66s CPU     73.43s WALL (     310 calls)
     sum_band     :     14.78s CPU     14.96s WALL (     310 calls)
     v_of_rho     :     27.29s CPU     33.16s WALL (     311 calls)
     v_h          :      1.95s CPU      2.53s WALL (     311 calls)
     v_xc         :     26.37s CPU     31.83s WALL (     323 calls)
     mix_rho      :      2.78s CPU      2.83s WALL (     310 calls)

     Called by c_bands:
     init_us_2    :      2.76s CPU      2.95s WALL (    3165 calls)
     cegterg      :     57.11s CPU     61.04s WALL (    1551 calls)

     Called by sum_band:
     sum_band:wei :      0.01s CPU      0.01s WALL (     310 calls)
     sum_band:loo :     11.40s CPU     11.53s WALL (     310 calls)
     sum_band:buf :      0.05s CPU      0.06s WALL (    1550 calls)
     sum_band:ini :      1.41s CPU      1.42s WALL (    1550 calls)

     Called by *egterg:
     cdiaghg      :      1.28s CPU      4.43s WALL (    4812 calls)
     cegterg:over :      1.42s CPU      1.44s WALL (    3372 calls)
     cegterg:upda :      0.90s CPU      0.91s WALL (    3372 calls)
     cegterg:last :      1.00s CPU      1.02s WALL (    2522 calls)
     h_psi        :     51.50s CPU     52.28s WALL (    4928 calls)
     g_psi        :      0.22s CPU      0.22s WALL (    3372 calls)

     Called by h_psi:
     h_psi:calbec :      2.47s CPU      2.54s WALL (    4928 calls)
     vloc_psi     :     46.58s CPU     47.25s WALL (    4928 calls)
     add_vuspsi   :      2.27s CPU      2.30s WALL (    4928 calls)

     General routines
     calbec       :      2.59s CPU      2.67s WALL (    5168 calls)
     fft          :     24.45s CPU     27.89s WALL (    3850 calls)
     ffts         :      1.04s CPU      1.05s WALL (     621 calls)
     fftw         :     47.64s CPU     48.29s WALL (  117808 calls)
     interpolate  :      1.93s CPU      2.05s WALL (     311 calls)

     Parallel routines

     PWSCF        :   2m 6.96s CPU   2m32.89s WALL


   This run was terminated on:  15:15:23  23Feb2026            

=------------------------------------------------------------------------------=
   JOB DONE.
=------------------------------------------------------------------------------=
