
     Program PHONON v.7.3.1 starts on  9Feb2026 at 17:11: 2 

     This program is part of the open-source Quantum ESPRESSO suite
     for quantum simulation of materials; please cite
         "P. Giannozzi et al., J. Phys.:Condens. Matter 21 395502 (2009);
         "P. Giannozzi et al., J. Phys.:Condens. Matter 29 465901 (2017);
         "P. Giannozzi et al., J. Chem. Phys. 152 154105 (2020);
          URL http://www.quantum-espresso.org", 
     in publications or presentations arising from this work. More details at
     http://www.quantum-espresso.org/quote

     Parallel version (MPI), running on   128 processors

     MPI processes distributed on     4 nodes
     240394 MiB available memory on the printing compute node when the environment starts

     Waiting for input...
     Reading input from standard input
      Title line not specified: using 'default'.

     Reading xml data from directory:

     ./_ph0/MoS2.save/
     Message from routine qexsd_readschema :
     input info not found or not readable in xml file

     R & G space division:  proc/nbgrp/npool/nimage =     128
     Subspace diagonalization in iterative solution of the eigenvalue problem:
     a serial algorithm will be used


     IMPORTANT: XC functional enforced from input :
     Exchange-correlation= PBESOL
                           (   1   4  10   8   0   0   0)
     Any further DFT definition will be discarded
     Please, verify this is what you really want


     Parallelization info
     --------------------
     sticks:   dense  smooth     PW     G-vecs:    dense   smooth      PW
     Min           6       6      1                  890      890     131
     Max           7       7      2                  942      942     190
     Sum         769     769    253               117923   117923   22571

     Using Slab Decomposition

 ----2D----2D----2D----2D----2D----2D----2D----2D----2D----2D----2D----2D
  The code is running with the 2D cutoff
  Please refer to:
  Sohier, T., Calandra, M., & Mauri, F. (2017), 
  Density functional perturbation theory for gated two-dimensional heterostructures:
  Theoretical developments and application to flexural phonons in graphene.
  Physical Review B, 96(7), 75448. https://doi.org/10.1103/PhysRevB.96.075448
 ----2D----2D----2D----2D----2D----2D----2D----2D----2D----2D----2D----2D
     read_file_ph: Wavefunctions in collected format not needed

     Saving dvscf to file. Distribute only q points, not irreducible representations.
        1 /   7 q-points for this run, from  7 to  7:
       N       xq(1)         xq(2)         xq(3) 
       1   0.000000000   0.000000000   0.000000000
       2   0.000000000  -0.192450090   0.000000000
       3   0.000000000  -0.384900179   0.000000000
       4   0.000000000   0.577350269   0.000000000
       5  -0.166666667  -0.288675135   0.000000000
       6  -0.166666667  -0.481125224   0.000000000
       7  -0.333333333  -0.577350269   0.000000000


     Calculation of q =   -0.3333333  -0.5773503   0.0000000

     Bands found: reading from ./_ph0/

     Reading xml data from directory:

     ./_ph0/MoS2.save/
     Message from routine qexsd_readschema :
     input info not found or not readable in xml file

     IMPORTANT: XC functional enforced from input :
     Exchange-correlation= PBESOL
                           (   1   4  10   8   0   0   0)
     Any further DFT definition will be discarded
     Please, verify this is what you really want


     Parallelization info
     --------------------
     sticks:   dense  smooth     PW     G-vecs:    dense   smooth      PW
     Min           6       6      1                  890      890     131
     Max           7       7      2                  942      942     190
     Sum         769     769    253               117923   117923   22571

     Using Slab Decomposition

 ----2D----2D----2D----2D----2D----2D----2D----2D----2D----2D----2D----2D
  The code is running with the 2D cutoff
  Please refer to:
  Sohier, T., Calandra, M., & Mauri, F. (2017), 
  Density functional perturbation theory for gated two-dimensional heterostructures:
  Theoretical developments and application to flexural phonons in graphene.
  Physical Review B, 96(7), 75448. https://doi.org/10.1103/PhysRevB.96.075448
 ----2D----2D----2D----2D----2D----2D----2D----2D----2D----2D----2D----2D
     read_file_new: Wavefunctions not in collected format?!?
     read_file: Wavefunctions in collected format not available

     Restart in Phonon calculation

     default                                                                    

     bravais-lattice index     =            4
     lattice parameter (alat)  =       5.9358  a.u.
     unit-cell volume          =    1220.5221 (a.u.)^3
     number of atoms/cell      =            3
     number of atomic types    =            2
     kinetic-energy cut-off    =      80.0000  Ry
     charge density cut-off    =     320.0000  Ry
     convergence threshold     =      1.0E-15
     beta                      =       0.7000
     number of iterations used =           10
     Exchange-correlation= PBESOL
                           (   1   4  10   8   0   0   0)


     celldm(1)=    5.93578  celldm(2)=    0.00000  celldm(3)=    6.73880
     celldm(4)=    0.00000  celldm(5)=    0.00000  celldm(6)=    0.00000

     crystal axes: (cart. coord. in units of alat)
               a(1) = (  1.0000  0.0000  0.0000 )  
               a(2) = ( -0.5000  0.8660  0.0000 )  
               a(3) = (  0.0000  0.0000  6.7388 )  

     reciprocal axes: (cart. coord. in units 2 pi/alat)
               b(1) = (  1.0000  0.5774 -0.0000 )  
               b(2) = (  0.0000  1.1547  0.0000 )  
               b(3) = (  0.0000 -0.0000  0.1484 )  


     Atoms inside the unit cell: 

     Cartesian axes

     site n.  atom      mass           positions (alat units)
        1  Mo     95.9500   tau(    1) = (    0.00000    0.57735    0.00000  )
        2  S      32.0650   tau(    2) = (    0.50000    0.28868    0.49620  )
        3  S      32.0650   tau(    3) = (    0.50000    0.28868   -0.49620  )

     Computing dynamical matrix for 
                    q = (  -0.3333333  -0.5773503   0.0000000 )

      6 Sym.Ops. (no q -> -q+G )

                                    s                        frac. trans.

      isym =  1     identity                                     

 cryst.   s( 1) = (     1          0          0      )
                  (     0          1          0      )
                  (     0          0          1      )

 cart.    s( 1) = (  1.0000000  0.0000000  0.0000000 )
                  (  0.0000000  1.0000000  0.0000000 )
                  (  0.0000000  0.0000000  1.0000000 )


      isym =  2     inv. 180 deg rotation - cart. axis [0,0,1]   

 cryst.   s( 2) = (     1          0          0      )
                  (     0          1          0      )
                  (     0          0         -1      )

 cart.    s( 2) = (  1.0000000  0.0000000  0.0000000 )
                  (  0.0000000  1.0000000  0.0000000 )
                  (  0.0000000  0.0000000 -1.0000000 )


      isym =  3     inv.  60 deg rotation - cryst. axis [0,0,1]  

 cryst.   s( 3) = (    -1         -1          0      )
                  (     1          0          0      )
                  (     0          0         -1      )

 cart.    s( 3) = ( -0.5000000  0.8660254  0.0000000 )
                  ( -0.8660254 -0.5000000  0.0000000 )
                  (  0.0000000  0.0000000 -1.0000000 )


      isym =  4     inv.  60 deg rotation - cryst. axis [0,0,-1] 

 cryst.   s( 4) = (     0          1          0      )
                  (    -1         -1          0      )
                  (     0          0         -1      )

 cart.    s( 4) = ( -0.5000000 -0.8660254  0.0000000 )
                  (  0.8660254 -0.5000000  0.0000000 )
                  (  0.0000000  0.0000000 -1.0000000 )


      isym =  5     120 deg rotation - cryst. axis [0,0,1]       

 cryst.   s( 5) = (     0          1          0      )
                  (    -1         -1          0      )
                  (     0          0          1      )

 cart.    s( 5) = ( -0.5000000 -0.8660254  0.0000000 )
                  (  0.8660254 -0.5000000  0.0000000 )
                  (  0.0000000  0.0000000  1.0000000 )


      isym =  6     120 deg rotation - cryst. axis [0,0,-1]      

 cryst.   s( 6) = (    -1         -1          0      )
                  (     1          0          0      )
                  (     0          0          1      )

 cart.    s( 6) = ( -0.5000000  0.8660254  0.0000000 )
                  ( -0.8660254 -0.5000000  0.0000000 )
                  (  0.0000000  0.0000000  1.0000000 )


     G cutoff =  285.5915  (    922 G-vectors)     FFT grid: ( 36, 36,240)
     number of k points=   220
                       cart. coord. in units 2pi/alat
        k(    1) = (   0.0000000   0.0000000   0.0000000), wk =   0.0061728
        k(    2) = (  -0.3333333  -0.5773503   0.0000000), wk =   0.0000000
        k(    3) = (   0.0000000   0.0641500   0.0000000), wk =   0.0185185
        k(    4) = (  -0.3333333  -0.5132002   0.0000000), wk =   0.0000000
        k(    5) = (   0.0000000   0.1283001   0.0000000), wk =   0.0185185
        k(    6) = (  -0.3333333  -0.4490502   0.0000000), wk =   0.0000000
        k(    7) = (   0.0000000   0.1924501   0.0000000), wk =   0.0185185
        k(    8) = (  -0.3333333  -0.3849002   0.0000000), wk =   0.0000000
        k(    9) = (   0.0000000   0.2566001   0.0000000), wk =   0.0185185
        k(   10) = (  -0.3333333  -0.3207501   0.0000000), wk =   0.0000000
        k(   11) = (   0.0000000   0.3207501   0.0000000), wk =   0.0185185
        k(   12) = (  -0.3333333  -0.2566001   0.0000000), wk =   0.0000000
        k(   13) = (   0.0000000   0.3849002   0.0000000), wk =   0.0185185
        k(   14) = (  -0.3333333  -0.1924501   0.0000000), wk =   0.0000000
        k(   15) = (   0.0000000   0.4490502   0.0000000), wk =   0.0185185
        k(   16) = (  -0.3333333  -0.1283001   0.0000000), wk =   0.0000000
        k(   17) = (   0.0000000   0.5132002   0.0000000), wk =   0.0185185
        k(   18) = (  -0.3333333  -0.0641500   0.0000000), wk =   0.0000000
        k(   19) = (   0.0000000  -0.5773503   0.0000000), wk =   0.0185185
        k(   20) = (  -0.3333333  -1.1547005   0.0000000), wk =   0.0000000
        k(   21) = (   0.0555556   0.0962250   0.0000000), wk =   0.0185185
        k(   22) = (  -0.2777778  -0.4811252   0.0000000), wk =   0.0000000
        k(   23) = (   0.0555556   0.1603751   0.0000000), wk =   0.0185185
        k(   24) = (  -0.2777778  -0.4169752   0.0000000), wk =   0.0000000
        k(   25) = (   0.0555556   0.2245251   0.0000000), wk =   0.0185185
        k(   26) = (  -0.2777778  -0.3528252   0.0000000), wk =   0.0000000
        k(   27) = (   0.0555556   0.2886751   0.0000000), wk =   0.0185185
        k(   28) = (  -0.2777778  -0.2886751   0.0000000), wk =   0.0000000
        k(   29) = (   0.0555556   0.3528252   0.0000000), wk =   0.0185185
        k(   30) = (  -0.2777778  -0.2245251   0.0000000), wk =   0.0000000
        k(   31) = (   0.0555556   0.4169752   0.0000000), wk =   0.0185185
        k(   32) = (  -0.2777778  -0.1603751   0.0000000), wk =   0.0000000
        k(   33) = (   0.0555556   0.4811252   0.0000000), wk =   0.0185185
        k(   34) = (  -0.2777778  -0.0962250   0.0000000), wk =   0.0000000
        k(   35) = (   0.0555556   0.5452753   0.0000000), wk =   0.0185185
        k(   36) = (  -0.2777778  -0.0320750   0.0000000), wk =   0.0000000
        k(   37) = (   0.1111111   0.1924501   0.0000000), wk =   0.0185185
        k(   38) = (  -0.2222222  -0.3849002   0.0000000), wk =   0.0000000
        k(   39) = (   0.1111111   0.2566001   0.0000000), wk =   0.0185185
        k(   40) = (  -0.2222222  -0.3207501   0.0000000), wk =   0.0000000
        k(   41) = (   0.1111111   0.3207501   0.0000000), wk =   0.0185185
        k(   42) = (  -0.2222222  -0.2566001   0.0000000), wk =   0.0000000
        k(   43) = (   0.1111111   0.3849002   0.0000000), wk =   0.0185185
        k(   44) = (  -0.2222222  -0.1924501   0.0000000), wk =   0.0000000
        k(   45) = (   0.1111111   0.4490502   0.0000000), wk =   0.0185185
        k(   46) = (  -0.2222222  -0.1283001   0.0000000), wk =   0.0000000
        k(   47) = (   0.1111111   0.5132002   0.0000000), wk =   0.0185185
        k(   48) = (  -0.2222222  -0.0641500   0.0000000), wk =   0.0000000
        k(   49) = (   0.1111111   0.5773503   0.0000000), wk =   0.0185185
        k(   50) = (  -0.2222222   0.0000000   0.0000000), wk =   0.0000000
        k(   51) = (   0.1666667   0.2886751   0.0000000), wk =   0.0185185
        k(   52) = (  -0.1666667  -0.2886751   0.0000000), wk =   0.0000000
        k(   53) = (   0.1666667   0.3528252   0.0000000), wk =   0.0185185
        k(   54) = (  -0.1666667  -0.2245251   0.0000000), wk =   0.0000000
        k(   55) = (   0.1666667   0.4169752   0.0000000), wk =   0.0185185
        k(   56) = (  -0.1666667  -0.1603751   0.0000000), wk =   0.0000000
        k(   57) = (   0.1666667   0.4811252   0.0000000), wk =   0.0185185
        k(   58) = (  -0.1666667  -0.0962250   0.0000000), wk =   0.0000000
        k(   59) = (   0.1666667   0.5452753   0.0000000), wk =   0.0185185
        k(   60) = (  -0.1666667  -0.0320750   0.0000000), wk =   0.0000000
        k(   61) = (   0.2222222   0.3849002   0.0000000), wk =   0.0185185
        k(   62) = (  -0.1111111  -0.1924501   0.0000000), wk =   0.0000000
        k(   63) = (   0.2222222   0.4490502   0.0000000), wk =   0.0185185
        k(   64) = (  -0.1111111  -0.1283001   0.0000000), wk =   0.0000000
        k(   65) = (   0.2222222   0.5132002   0.0000000), wk =   0.0185185
        k(   66) = (  -0.1111111  -0.0641500   0.0000000), wk =   0.0000000
        k(   67) = (   0.2222222   0.5773503   0.0000000), wk =   0.0185185
        k(   68) = (  -0.1111111   0.0000000   0.0000000), wk =   0.0000000
        k(   69) = (   0.2777778   0.4811252   0.0000000), wk =   0.0185185
        k(   70) = (  -0.0555556  -0.0962250   0.0000000), wk =   0.0000000
        k(   71) = (   0.2777778   0.5452753   0.0000000), wk =   0.0185185
        k(   72) = (  -0.0555556  -0.0320750   0.0000000), wk =   0.0000000
        k(   73) = (   0.3333333   0.5773503   0.0000000), wk =   0.0061728
        k(   74) = (   0.0000000   0.0000000   0.0000000), wk =   0.0000000
        k(   75) = (   0.0000000  -0.0641500   0.0000000), wk =   0.0185185
        k(   76) = (  -0.3333333  -0.6415003   0.0000000), wk =   0.0000000
        k(   77) = (   0.0000000  -0.1283001   0.0000000), wk =   0.0185185
        k(   78) = (  -0.3333333  -0.7056503   0.0000000), wk =   0.0000000
        k(   79) = (   0.0000000  -0.1924501   0.0000000), wk =   0.0185185
        k(   80) = (  -0.3333333  -0.7698004   0.0000000), wk =   0.0000000
        k(   81) = (   0.0000000  -0.2566001   0.0000000), wk =   0.0185185
        k(   82) = (  -0.3333333  -0.8339504   0.0000000), wk =   0.0000000
        k(   83) = (   0.0000000  -0.3207501   0.0000000), wk =   0.0185185
        k(   84) = (  -0.3333333  -0.8981004   0.0000000), wk =   0.0000000
        k(   85) = (   0.0000000  -0.3849002   0.0000000), wk =   0.0185185
        k(   86) = (  -0.3333333  -0.9622504   0.0000000), wk =   0.0000000
        k(   87) = (   0.0000000  -0.4490502   0.0000000), wk =   0.0185185
        k(   88) = (  -0.3333333  -1.0264005   0.0000000), wk =   0.0000000
        k(   89) = (   0.0000000  -0.5132002   0.0000000), wk =   0.0185185
        k(   90) = (  -0.3333333  -1.0905505   0.0000000), wk =   0.0000000
        k(   91) = (  -0.0555556   0.0962250   0.0000000), wk =   0.0185185
        k(   92) = (  -0.3888889  -0.4811252   0.0000000), wk =   0.0000000
        k(   93) = (  -0.0555556   0.1603751   0.0000000), wk =   0.0185185
        k(   94) = (  -0.3888889  -0.4169752   0.0000000), wk =   0.0000000
        k(   95) = (  -0.0555556  -0.1603751   0.0000000), wk =   0.0185185
        k(   96) = (  -0.3888889  -0.7377253   0.0000000), wk =   0.0000000
        k(   97) = (   0.0555556  -0.1603751   0.0000000), wk =   0.0185185
        k(   98) = (  -0.2777778  -0.7377253   0.0000000), wk =   0.0000000
        k(   99) = (  -0.0555556   0.2245251   0.0000000), wk =   0.0185185
        k(  100) = (  -0.3888889  -0.3528252   0.0000000), wk =   0.0000000
        k(  101) = (  -0.0555556  -0.2245251   0.0000000), wk =   0.0185185
        k(  102) = (  -0.3888889  -0.8018754   0.0000000), wk =   0.0000000
        k(  103) = (   0.0555556  -0.2245251   0.0000000), wk =   0.0185185
        k(  104) = (  -0.2777778  -0.8018754   0.0000000), wk =   0.0000000
        k(  105) = (  -0.0555556   0.2886751   0.0000000), wk =   0.0185185
        k(  106) = (  -0.3888889  -0.2886751   0.0000000), wk =   0.0000000
        k(  107) = (  -0.0555556  -0.2886751   0.0000000), wk =   0.0185185
        k(  108) = (  -0.3888889  -0.8660254   0.0000000), wk =   0.0000000
        k(  109) = (   0.0555556  -0.2886751   0.0000000), wk =   0.0185185
        k(  110) = (  -0.2777778  -0.8660254   0.0000000), wk =   0.0000000
        k(  111) = (  -0.0555556   0.3528252   0.0000000), wk =   0.0185185
        k(  112) = (  -0.3888889  -0.2245251   0.0000000), wk =   0.0000000
        k(  113) = (  -0.0555556  -0.3528252   0.0000000), wk =   0.0185185
        k(  114) = (  -0.3888889  -0.9301754   0.0000000), wk =   0.0000000
        k(  115) = (   0.0555556  -0.3528252   0.0000000), wk =   0.0185185
        k(  116) = (  -0.2777778  -0.9301754   0.0000000), wk =   0.0000000
        k(  117) = (  -0.0555556   0.4169752   0.0000000), wk =   0.0185185
        k(  118) = (  -0.3888889  -0.1603751   0.0000000), wk =   0.0000000
        k(  119) = (  -0.0555556  -0.4169752   0.0000000), wk =   0.0185185
        k(  120) = (  -0.3888889  -0.9943255   0.0000000), wk =   0.0000000
        k(  121) = (   0.0555556  -0.4169752   0.0000000), wk =   0.0185185
        k(  122) = (  -0.2777778  -0.9943255   0.0000000), wk =   0.0000000
        k(  123) = (  -0.0555556   0.4811252   0.0000000), wk =   0.0185185
        k(  124) = (  -0.3888889  -0.0962250   0.0000000), wk =   0.0000000
        k(  125) = (  -0.0555556  -0.4811252   0.0000000), wk =   0.0185185
        k(  126) = (  -0.3888889  -1.0584755   0.0000000), wk =   0.0000000
        k(  127) = (   0.0555556  -0.4811252   0.0000000), wk =   0.0185185
        k(  128) = (  -0.2777778  -1.0584755   0.0000000), wk =   0.0000000
        k(  129) = (  -0.0555556   0.5452753   0.0000000), wk =   0.0185185
        k(  130) = (  -0.3888889  -0.0320750   0.0000000), wk =   0.0000000
        k(  131) = (  -0.0555556  -0.5452753   0.0000000), wk =   0.0185185
        k(  132) = (  -0.3888889  -1.1226255   0.0000000), wk =   0.0000000
        k(  133) = (   0.0555556  -0.5452753   0.0000000), wk =   0.0185185
        k(  134) = (  -0.2777778  -1.1226255   0.0000000), wk =   0.0000000
        k(  135) = (  -0.1111111   0.1924501   0.0000000), wk =   0.0185185
        k(  136) = (  -0.4444444  -0.3849002   0.0000000), wk =   0.0000000
        k(  137) = (  -0.1111111   0.2566001   0.0000000), wk =   0.0185185
        k(  138) = (  -0.4444444  -0.3207501   0.0000000), wk =   0.0000000
        k(  139) = (  -0.1111111  -0.2566001   0.0000000), wk =   0.0185185
        k(  140) = (  -0.4444444  -0.8339504   0.0000000), wk =   0.0000000
        k(  141) = (   0.1111111  -0.2566001   0.0000000), wk =   0.0185185
        k(  142) = (  -0.2222222  -0.8339504   0.0000000), wk =   0.0000000
        k(  143) = (  -0.1111111   0.3207501   0.0000000), wk =   0.0185185
        k(  144) = (  -0.4444444  -0.2566001   0.0000000), wk =   0.0000000
        k(  145) = (  -0.1111111  -0.3207501   0.0000000), wk =   0.0185185
        k(  146) = (  -0.4444444  -0.8981004   0.0000000), wk =   0.0000000
        k(  147) = (   0.1111111  -0.3207501   0.0000000), wk =   0.0185185
        k(  148) = (  -0.2222222  -0.8981004   0.0000000), wk =   0.0000000
        k(  149) = (  -0.1111111   0.3849002   0.0000000), wk =   0.0185185
        k(  150) = (  -0.4444444  -0.1924501   0.0000000), wk =   0.0000000
        k(  151) = (  -0.1111111  -0.3849002   0.0000000), wk =   0.0185185
        k(  152) = (  -0.4444444  -0.9622504   0.0000000), wk =   0.0000000
        k(  153) = (   0.1111111  -0.3849002   0.0000000), wk =   0.0185185
        k(  154) = (  -0.2222222  -0.9622504   0.0000000), wk =   0.0000000
        k(  155) = (  -0.1111111   0.4490502   0.0000000), wk =   0.0185185
        k(  156) = (  -0.4444444  -0.1283001   0.0000000), wk =   0.0000000
        k(  157) = (  -0.1111111  -0.4490502   0.0000000), wk =   0.0185185
        k(  158) = (  -0.4444444  -1.0264005   0.0000000), wk =   0.0000000
        k(  159) = (   0.1111111  -0.4490502   0.0000000), wk =   0.0185185
        k(  160) = (  -0.2222222  -1.0264005   0.0000000), wk =   0.0000000
        k(  161) = (  -0.1111111   0.5132002   0.0000000), wk =   0.0185185
        k(  162) = (  -0.4444444  -0.0641500   0.0000000), wk =   0.0000000
        k(  163) = (  -0.1111111  -0.5132002   0.0000000), wk =   0.0185185
        k(  164) = (  -0.4444444  -1.0905505   0.0000000), wk =   0.0000000
        k(  165) = (   0.1111111  -0.5132002   0.0000000), wk =   0.0185185
        k(  166) = (  -0.2222222  -1.0905505   0.0000000), wk =   0.0000000
        k(  167) = (  -0.1111111   0.5773503   0.0000000), wk =   0.0185185
        k(  168) = (  -0.4444444   0.0000000   0.0000000), wk =   0.0000000
        k(  169) = (  -0.1666667   0.2886751   0.0000000), wk =   0.0185185
        k(  170) = (  -0.5000000  -0.2886751   0.0000000), wk =   0.0000000
        k(  171) = (  -0.1666667   0.3528252   0.0000000), wk =   0.0185185
        k(  172) = (  -0.5000000  -0.2245251   0.0000000), wk =   0.0000000
        k(  173) = (  -0.1666667  -0.3528252   0.0000000), wk =   0.0185185
        k(  174) = (  -0.5000000  -0.9301754   0.0000000), wk =   0.0000000
        k(  175) = (   0.1666667  -0.3528252   0.0000000), wk =   0.0185185
        k(  176) = (  -0.1666667  -0.9301754   0.0000000), wk =   0.0000000
        k(  177) = (  -0.1666667   0.4169752   0.0000000), wk =   0.0185185
        k(  178) = (  -0.5000000  -0.1603751   0.0000000), wk =   0.0000000
        k(  179) = (  -0.1666667  -0.4169752   0.0000000), wk =   0.0185185
        k(  180) = (  -0.5000000  -0.9943255   0.0000000), wk =   0.0000000
        k(  181) = (   0.1666667  -0.4169752   0.0000000), wk =   0.0185185
        k(  182) = (  -0.1666667  -0.9943255   0.0000000), wk =   0.0000000
        k(  183) = (  -0.1666667   0.4811252   0.0000000), wk =   0.0185185
        k(  184) = (  -0.5000000  -0.0962250   0.0000000), wk =   0.0000000
        k(  185) = (  -0.1666667  -0.4811252   0.0000000), wk =   0.0185185
        k(  186) = (  -0.5000000  -1.0584755   0.0000000), wk =   0.0000000
        k(  187) = (   0.1666667  -0.4811252   0.0000000), wk =   0.0185185
        k(  188) = (  -0.1666667  -1.0584755   0.0000000), wk =   0.0000000
        k(  189) = (  -0.1666667   0.5452753   0.0000000), wk =   0.0185185
        k(  190) = (  -0.5000000  -0.0320750   0.0000000), wk =   0.0000000
        k(  191) = (  -0.1666667  -0.5452753   0.0000000), wk =   0.0185185
        k(  192) = (  -0.5000000  -1.1226255   0.0000000), wk =   0.0000000
        k(  193) = (   0.1666667  -0.5452753   0.0000000), wk =   0.0185185
        k(  194) = (  -0.1666667  -1.1226255   0.0000000), wk =   0.0000000
        k(  195) = (  -0.2222222   0.3849002   0.0000000), wk =   0.0185185
        k(  196) = (  -0.5555556  -0.1924501   0.0000000), wk =   0.0000000
        k(  197) = (  -0.2222222   0.4490502   0.0000000), wk =   0.0185185
        k(  198) = (  -0.5555556  -0.1283001   0.0000000), wk =   0.0000000
        k(  199) = (  -0.2222222  -0.4490502   0.0000000), wk =   0.0185185
        k(  200) = (  -0.5555556  -1.0264005   0.0000000), wk =   0.0000000
        k(  201) = (   0.2222222  -0.4490502   0.0000000), wk =   0.0185185
        k(  202) = (  -0.1111111  -1.0264005   0.0000000), wk =   0.0000000
        k(  203) = (  -0.2222222   0.5132002   0.0000000), wk =   0.0185185
        k(  204) = (  -0.5555556  -0.0641500   0.0000000), wk =   0.0000000
        k(  205) = (  -0.2222222  -0.5132002   0.0000000), wk =   0.0185185
        k(  206) = (  -0.5555556  -1.0905505   0.0000000), wk =   0.0000000
        k(  207) = (   0.2222222  -0.5132002   0.0000000), wk =   0.0185185
        k(  208) = (  -0.1111111  -1.0905505   0.0000000), wk =   0.0000000
        k(  209) = (  -0.2222222   0.5773503   0.0000000), wk =   0.0185185
        k(  210) = (  -0.5555556   0.0000000   0.0000000), wk =   0.0000000
        k(  211) = (  -0.2777778   0.4811252   0.0000000), wk =   0.0185185
        k(  212) = (  -0.6111111  -0.0962250   0.0000000), wk =   0.0000000
        k(  213) = (  -0.2777778   0.5452753   0.0000000), wk =   0.0185185
        k(  214) = (  -0.6111111  -0.0320750   0.0000000), wk =   0.0000000
        k(  215) = (  -0.2777778  -0.5452753   0.0000000), wk =   0.0185185
        k(  216) = (  -0.6111111  -1.1226255   0.0000000), wk =   0.0000000
        k(  217) = (   0.2777778  -0.5452753   0.0000000), wk =   0.0185185
        k(  218) = (  -0.0555556  -1.1226255   0.0000000), wk =   0.0000000
        k(  219) = (  -0.3333333   0.5773503   0.0000000), wk =   0.0061728
        k(  220) = (  -0.6666667   0.0000000   0.0000000), wk =   0.0000000

                       cryst. coord.
        k(    1) = (   0.0000000   0.0000000   0.0000000), wk =   0.0061728
        k(    2) = (  -0.3333333  -0.3333333   0.0000000), wk =   0.0000000
        k(    3) = (   0.0000000   0.0555556   0.0000000), wk =   0.0185185
        k(    4) = (  -0.3333333  -0.2777778   0.0000000), wk =   0.0000000
        k(    5) = (   0.0000000   0.1111111   0.0000000), wk =   0.0185185
        k(    6) = (  -0.3333333  -0.2222222   0.0000000), wk =   0.0000000
        k(    7) = (   0.0000000   0.1666667   0.0000000), wk =   0.0185185
        k(    8) = (  -0.3333333  -0.1666667   0.0000000), wk =   0.0000000
        k(    9) = (   0.0000000   0.2222222   0.0000000), wk =   0.0185185
        k(   10) = (  -0.3333333  -0.1111111   0.0000000), wk =   0.0000000
        k(   11) = (   0.0000000   0.2777778   0.0000000), wk =   0.0185185
        k(   12) = (  -0.3333333  -0.0555556   0.0000000), wk =   0.0000000
        k(   13) = (   0.0000000   0.3333333   0.0000000), wk =   0.0185185
        k(   14) = (  -0.3333333  -0.0000000   0.0000000), wk =   0.0000000
        k(   15) = (   0.0000000   0.3888889   0.0000000), wk =   0.0185185
        k(   16) = (  -0.3333333   0.0555556   0.0000000), wk =   0.0000000
        k(   17) = (   0.0000000   0.4444444   0.0000000), wk =   0.0185185
        k(   18) = (  -0.3333333   0.1111111   0.0000000), wk =   0.0000000
        k(   19) = (   0.0000000  -0.5000000   0.0000000), wk =   0.0185185
        k(   20) = (  -0.3333333  -0.8333333   0.0000000), wk =   0.0000000
        k(   21) = (   0.0555556   0.0555556   0.0000000), wk =   0.0185185
        k(   22) = (  -0.2777778  -0.2777778   0.0000000), wk =   0.0000000
        k(   23) = (   0.0555556   0.1111111   0.0000000), wk =   0.0185185
        k(   24) = (  -0.2777778  -0.2222222   0.0000000), wk =   0.0000000
        k(   25) = (   0.0555556   0.1666667   0.0000000), wk =   0.0185185
        k(   26) = (  -0.2777778  -0.1666667   0.0000000), wk =   0.0000000
        k(   27) = (   0.0555556   0.2222222   0.0000000), wk =   0.0185185
        k(   28) = (  -0.2777778  -0.1111111   0.0000000), wk =   0.0000000
        k(   29) = (   0.0555556   0.2777778   0.0000000), wk =   0.0185185
        k(   30) = (  -0.2777778  -0.0555556   0.0000000), wk =   0.0000000
        k(   31) = (   0.0555556   0.3333333   0.0000000), wk =   0.0185185
        k(   32) = (  -0.2777778  -0.0000000   0.0000000), wk =   0.0000000
        k(   33) = (   0.0555556   0.3888889   0.0000000), wk =   0.0185185
        k(   34) = (  -0.2777778   0.0555556   0.0000000), wk =   0.0000000
        k(   35) = (   0.0555556   0.4444444   0.0000000), wk =   0.0185185
        k(   36) = (  -0.2777778   0.1111111   0.0000000), wk =   0.0000000
        k(   37) = (   0.1111111   0.1111111   0.0000000), wk =   0.0185185
        k(   38) = (  -0.2222222  -0.2222222   0.0000000), wk =   0.0000000
        k(   39) = (   0.1111111   0.1666667   0.0000000), wk =   0.0185185
        k(   40) = (  -0.2222222  -0.1666667   0.0000000), wk =   0.0000000
        k(   41) = (   0.1111111   0.2222222   0.0000000), wk =   0.0185185
        k(   42) = (  -0.2222222  -0.1111111   0.0000000), wk =   0.0000000
        k(   43) = (   0.1111111   0.2777778   0.0000000), wk =   0.0185185
        k(   44) = (  -0.2222222  -0.0555556   0.0000000), wk =   0.0000000
        k(   45) = (   0.1111111   0.3333333   0.0000000), wk =   0.0185185
        k(   46) = (  -0.2222222  -0.0000000   0.0000000), wk =   0.0000000
        k(   47) = (   0.1111111   0.3888889   0.0000000), wk =   0.0185185
        k(   48) = (  -0.2222222   0.0555556   0.0000000), wk =   0.0000000
        k(   49) = (   0.1111111   0.4444444   0.0000000), wk =   0.0185185
        k(   50) = (  -0.2222222   0.1111111   0.0000000), wk =   0.0000000
        k(   51) = (   0.1666667   0.1666667   0.0000000), wk =   0.0185185
        k(   52) = (  -0.1666667  -0.1666667   0.0000000), wk =   0.0000000
        k(   53) = (   0.1666667   0.2222222   0.0000000), wk =   0.0185185
        k(   54) = (  -0.1666667  -0.1111111   0.0000000), wk =   0.0000000
        k(   55) = (   0.1666667   0.2777778   0.0000000), wk =   0.0185185
        k(   56) = (  -0.1666667  -0.0555556   0.0000000), wk =   0.0000000
        k(   57) = (   0.1666667   0.3333333   0.0000000), wk =   0.0185185
        k(   58) = (  -0.1666667  -0.0000000   0.0000000), wk =   0.0000000
        k(   59) = (   0.1666667   0.3888889   0.0000000), wk =   0.0185185
        k(   60) = (  -0.1666667   0.0555556   0.0000000), wk =   0.0000000
        k(   61) = (   0.2222222   0.2222222   0.0000000), wk =   0.0185185
        k(   62) = (  -0.1111111  -0.1111111   0.0000000), wk =   0.0000000
        k(   63) = (   0.2222222   0.2777778   0.0000000), wk =   0.0185185
        k(   64) = (  -0.1111111  -0.0555556   0.0000000), wk =   0.0000000
        k(   65) = (   0.2222222   0.3333333   0.0000000), wk =   0.0185185
        k(   66) = (  -0.1111111  -0.0000000   0.0000000), wk =   0.0000000
        k(   67) = (   0.2222222   0.3888889   0.0000000), wk =   0.0185185
        k(   68) = (  -0.1111111   0.0555556   0.0000000), wk =   0.0000000
        k(   69) = (   0.2777778   0.2777778   0.0000000), wk =   0.0185185
        k(   70) = (  -0.0555556  -0.0555556   0.0000000), wk =   0.0000000
        k(   71) = (   0.2777778   0.3333333   0.0000000), wk =   0.0185185
        k(   72) = (  -0.0555556  -0.0000000   0.0000000), wk =   0.0000000
        k(   73) = (   0.3333333   0.3333333   0.0000000), wk =   0.0061728
        k(   74) = (   0.0000000  -0.0000000   0.0000000), wk =   0.0000000
        k(   75) = (   0.0000000  -0.0555556   0.0000000), wk =   0.0185185
        k(   76) = (  -0.3333333  -0.3888889   0.0000000), wk =   0.0000000
        k(   77) = (   0.0000000  -0.1111111   0.0000000), wk =   0.0185185
        k(   78) = (  -0.3333333  -0.4444444   0.0000000), wk =   0.0000000
        k(   79) = (   0.0000000  -0.1666667   0.0000000), wk =   0.0185185
        k(   80) = (  -0.3333333  -0.5000000   0.0000000), wk =   0.0000000
        k(   81) = (   0.0000000  -0.2222222   0.0000000), wk =   0.0185185
        k(   82) = (  -0.3333333  -0.5555556   0.0000000), wk =   0.0000000
        k(   83) = (   0.0000000  -0.2777778   0.0000000), wk =   0.0185185
        k(   84) = (  -0.3333333  -0.6111111   0.0000000), wk =   0.0000000
        k(   85) = (   0.0000000  -0.3333333   0.0000000), wk =   0.0185185
        k(   86) = (  -0.3333333  -0.6666667   0.0000000), wk =   0.0000000
        k(   87) = (   0.0000000  -0.3888889   0.0000000), wk =   0.0185185
        k(   88) = (  -0.3333333  -0.7222222   0.0000000), wk =   0.0000000
        k(   89) = (   0.0000000  -0.4444444   0.0000000), wk =   0.0185185
        k(   90) = (  -0.3333333  -0.7777778   0.0000000), wk =   0.0000000
        k(   91) = (  -0.0555556   0.1111111   0.0000000), wk =   0.0185185
        k(   92) = (  -0.3888889  -0.2222222   0.0000000), wk =   0.0000000
        k(   93) = (  -0.0555556   0.1666667   0.0000000), wk =   0.0185185
        k(   94) = (  -0.3888889  -0.1666667   0.0000000), wk =   0.0000000
        k(   95) = (  -0.0555556  -0.1111111   0.0000000), wk =   0.0185185
        k(   96) = (  -0.3888889  -0.4444444   0.0000000), wk =   0.0000000
        k(   97) = (   0.0555556  -0.1666667   0.0000000), wk =   0.0185185
        k(   98) = (  -0.2777778  -0.5000000   0.0000000), wk =   0.0000000
        k(   99) = (  -0.0555556   0.2222222   0.0000000), wk =   0.0185185
        k(  100) = (  -0.3888889  -0.1111111   0.0000000), wk =   0.0000000
        k(  101) = (  -0.0555556  -0.1666667   0.0000000), wk =   0.0185185
        k(  102) = (  -0.3888889  -0.5000000   0.0000000), wk =   0.0000000
        k(  103) = (   0.0555556  -0.2222222   0.0000000), wk =   0.0185185
        k(  104) = (  -0.2777778  -0.5555556   0.0000000), wk =   0.0000000
        k(  105) = (  -0.0555556   0.2777778   0.0000000), wk =   0.0185185
        k(  106) = (  -0.3888889  -0.0555556   0.0000000), wk =   0.0000000
        k(  107) = (  -0.0555556  -0.2222222   0.0000000), wk =   0.0185185
        k(  108) = (  -0.3888889  -0.5555556   0.0000000), wk =   0.0000000
        k(  109) = (   0.0555556  -0.2777778   0.0000000), wk =   0.0185185
        k(  110) = (  -0.2777778  -0.6111111   0.0000000), wk =   0.0000000
        k(  111) = (  -0.0555556   0.3333333   0.0000000), wk =   0.0185185
        k(  112) = (  -0.3888889  -0.0000000   0.0000000), wk =   0.0000000
        k(  113) = (  -0.0555556  -0.2777778   0.0000000), wk =   0.0185185
        k(  114) = (  -0.3888889  -0.6111111   0.0000000), wk =   0.0000000
        k(  115) = (   0.0555556  -0.3333333   0.0000000), wk =   0.0185185
        k(  116) = (  -0.2777778  -0.6666667   0.0000000), wk =   0.0000000
        k(  117) = (  -0.0555556   0.3888889   0.0000000), wk =   0.0185185
        k(  118) = (  -0.3888889   0.0555556   0.0000000), wk =   0.0000000
        k(  119) = (  -0.0555556  -0.3333333   0.0000000), wk =   0.0185185
        k(  120) = (  -0.3888889  -0.6666667   0.0000000), wk =   0.0000000
        k(  121) = (   0.0555556  -0.3888889   0.0000000), wk =   0.0185185
        k(  122) = (  -0.2777778  -0.7222222   0.0000000), wk =   0.0000000
        k(  123) = (  -0.0555556   0.4444444   0.0000000), wk =   0.0185185
        k(  124) = (  -0.3888889   0.1111111   0.0000000), wk =   0.0000000
        k(  125) = (  -0.0555556  -0.3888889   0.0000000), wk =   0.0185185
        k(  126) = (  -0.3888889  -0.7222222   0.0000000), wk =   0.0000000
        k(  127) = (   0.0555556  -0.4444444   0.0000000), wk =   0.0185185
        k(  128) = (  -0.2777778  -0.7777778   0.0000000), wk =   0.0000000
        k(  129) = (  -0.0555556   0.5000000   0.0000000), wk =   0.0185185
        k(  130) = (  -0.3888889   0.1666667   0.0000000), wk =   0.0000000
        k(  131) = (  -0.0555556  -0.4444444   0.0000000), wk =   0.0185185
        k(  132) = (  -0.3888889  -0.7777778   0.0000000), wk =   0.0000000
        k(  133) = (   0.0555556  -0.5000000   0.0000000), wk =   0.0185185
        k(  134) = (  -0.2777778  -0.8333333   0.0000000), wk =   0.0000000
        k(  135) = (  -0.1111111   0.2222222   0.0000000), wk =   0.0185185
        k(  136) = (  -0.4444444  -0.1111111   0.0000000), wk =   0.0000000
        k(  137) = (  -0.1111111   0.2777778   0.0000000), wk =   0.0185185
        k(  138) = (  -0.4444444  -0.0555556   0.0000000), wk =   0.0000000
        k(  139) = (  -0.1111111  -0.1666667   0.0000000), wk =   0.0185185
        k(  140) = (  -0.4444444  -0.5000000   0.0000000), wk =   0.0000000
        k(  141) = (   0.1111111  -0.2777778   0.0000000), wk =   0.0185185
        k(  142) = (  -0.2222222  -0.6111111   0.0000000), wk =   0.0000000
        k(  143) = (  -0.1111111   0.3333333   0.0000000), wk =   0.0185185
        k(  144) = (  -0.4444444  -0.0000000   0.0000000), wk =   0.0000000
        k(  145) = (  -0.1111111  -0.2222222   0.0000000), wk =   0.0185185
        k(  146) = (  -0.4444444  -0.5555556   0.0000000), wk =   0.0000000
        k(  147) = (   0.1111111  -0.3333333   0.0000000), wk =   0.0185185
        k(  148) = (  -0.2222222  -0.6666667   0.0000000), wk =   0.0000000
        k(  149) = (  -0.1111111   0.3888889   0.0000000), wk =   0.0185185
        k(  150) = (  -0.4444444   0.0555556   0.0000000), wk =   0.0000000
        k(  151) = (  -0.1111111  -0.2777778   0.0000000), wk =   0.0185185
        k(  152) = (  -0.4444444  -0.6111111   0.0000000), wk =   0.0000000
        k(  153) = (   0.1111111  -0.3888889   0.0000000), wk =   0.0185185
        k(  154) = (  -0.2222222  -0.7222222   0.0000000), wk =   0.0000000
        k(  155) = (  -0.1111111   0.4444444   0.0000000), wk =   0.0185185
        k(  156) = (  -0.4444444   0.1111111   0.0000000), wk =   0.0000000
        k(  157) = (  -0.1111111  -0.3333333   0.0000000), wk =   0.0185185
        k(  158) = (  -0.4444444  -0.6666667   0.0000000), wk =   0.0000000
        k(  159) = (   0.1111111  -0.4444444   0.0000000), wk =   0.0185185
        k(  160) = (  -0.2222222  -0.7777778   0.0000000), wk =   0.0000000
        k(  161) = (  -0.1111111   0.5000000   0.0000000), wk =   0.0185185
        k(  162) = (  -0.4444444   0.1666667   0.0000000), wk =   0.0000000
        k(  163) = (  -0.1111111  -0.3888889   0.0000000), wk =   0.0185185
        k(  164) = (  -0.4444444  -0.7222222   0.0000000), wk =   0.0000000
        k(  165) = (   0.1111111  -0.5000000   0.0000000), wk =   0.0185185
        k(  166) = (  -0.2222222  -0.8333333   0.0000000), wk =   0.0000000
        k(  167) = (  -0.1111111   0.5555556   0.0000000), wk =   0.0185185
        k(  168) = (  -0.4444444   0.2222222   0.0000000), wk =   0.0000000
        k(  169) = (  -0.1666667   0.3333333   0.0000000), wk =   0.0185185
        k(  170) = (  -0.5000000  -0.0000000   0.0000000), wk =   0.0000000
        k(  171) = (  -0.1666667   0.3888889   0.0000000), wk =   0.0185185
        k(  172) = (  -0.5000000   0.0555556   0.0000000), wk =   0.0000000
        k(  173) = (  -0.1666667  -0.2222222   0.0000000), wk =   0.0185185
        k(  174) = (  -0.5000000  -0.5555556   0.0000000), wk =   0.0000000
        k(  175) = (   0.1666667  -0.3888889   0.0000000), wk =   0.0185185
        k(  176) = (  -0.1666667  -0.7222222   0.0000000), wk =   0.0000000
        k(  177) = (  -0.1666667   0.4444444   0.0000000), wk =   0.0185185
        k(  178) = (  -0.5000000   0.1111111   0.0000000), wk =   0.0000000
        k(  179) = (  -0.1666667  -0.2777778   0.0000000), wk =   0.0185185
        k(  180) = (  -0.5000000  -0.6111111   0.0000000), wk =   0.0000000
        k(  181) = (   0.1666667  -0.4444444   0.0000000), wk =   0.0185185
        k(  182) = (  -0.1666667  -0.7777778   0.0000000), wk =   0.0000000
        k(  183) = (  -0.1666667   0.5000000   0.0000000), wk =   0.0185185
        k(  184) = (  -0.5000000   0.1666667   0.0000000), wk =   0.0000000
        k(  185) = (  -0.1666667  -0.3333333   0.0000000), wk =   0.0185185
        k(  186) = (  -0.5000000  -0.6666667   0.0000000), wk =   0.0000000
        k(  187) = (   0.1666667  -0.5000000   0.0000000), wk =   0.0185185
        k(  188) = (  -0.1666667  -0.8333333   0.0000000), wk =   0.0000000
        k(  189) = (  -0.1666667   0.5555556   0.0000000), wk =   0.0185185
        k(  190) = (  -0.5000000   0.2222222   0.0000000), wk =   0.0000000
        k(  191) = (  -0.1666667  -0.3888889   0.0000000), wk =   0.0185185
        k(  192) = (  -0.5000000  -0.7222222   0.0000000), wk =   0.0000000
        k(  193) = (   0.1666667  -0.5555556   0.0000000), wk =   0.0185185
        k(  194) = (  -0.1666667  -0.8888889   0.0000000), wk =   0.0000000
        k(  195) = (  -0.2222222   0.4444444   0.0000000), wk =   0.0185185
        k(  196) = (  -0.5555556   0.1111111   0.0000000), wk =   0.0000000
        k(  197) = (  -0.2222222   0.5000000   0.0000000), wk =   0.0185185
        k(  198) = (  -0.5555556   0.1666667   0.0000000), wk =   0.0000000
        k(  199) = (  -0.2222222  -0.2777778   0.0000000), wk =   0.0185185
        k(  200) = (  -0.5555556  -0.6111111   0.0000000), wk =   0.0000000
        k(  201) = (   0.2222222  -0.5000000   0.0000000), wk =   0.0185185
        k(  202) = (  -0.1111111  -0.8333333   0.0000000), wk =   0.0000000
        k(  203) = (  -0.2222222   0.5555556   0.0000000), wk =   0.0185185
        k(  204) = (  -0.5555556   0.2222222   0.0000000), wk =   0.0000000
        k(  205) = (  -0.2222222  -0.3333333   0.0000000), wk =   0.0185185
        k(  206) = (  -0.5555556  -0.6666667   0.0000000), wk =   0.0000000
        k(  207) = (   0.2222222  -0.5555556   0.0000000), wk =   0.0185185
        k(  208) = (  -0.1111111  -0.8888889   0.0000000), wk =   0.0000000
        k(  209) = (  -0.2222222   0.6111111   0.0000000), wk =   0.0185185
        k(  210) = (  -0.5555556   0.2777778   0.0000000), wk =   0.0000000
        k(  211) = (  -0.2777778   0.5555556   0.0000000), wk =   0.0185185
        k(  212) = (  -0.6111111   0.2222222   0.0000000), wk =   0.0000000
        k(  213) = (  -0.2777778   0.6111111   0.0000000), wk =   0.0185185
        k(  214) = (  -0.6111111   0.2777778   0.0000000), wk =   0.0000000
        k(  215) = (  -0.2777778  -0.3333333   0.0000000), wk =   0.0185185
        k(  216) = (  -0.6111111  -0.6666667   0.0000000), wk =   0.0000000
        k(  217) = (   0.2777778  -0.6111111   0.0000000), wk =   0.0185185
        k(  218) = (  -0.0555556  -0.9444444   0.0000000), wk =   0.0000000
        k(  219) = (  -0.3333333   0.6666667   0.0000000), wk =   0.0061728
        k(  220) = (  -0.6666667   0.3333333   0.0000000), wk =   0.0000000

     PseudoPot. # 1 for Mo read from file:
     ./pseudo/Mo.pbesol.dojo.upf
     MD5 check sum: c40353276b9086539cda6b9e5a66907b
     Pseudo is Norm-conserving + core correction, Zval = 14.0
     Generated using ONCVPSP code by D. R. Hamann
     Using radial grid of 1640 points,  6 beta functions with: 
                l(1) =   0
                l(2) =   0
                l(3) =   1
                l(4) =   1
                l(5) =   2
                l(6) =   2

     PseudoPot. # 2 for S  read from file:
     ./pseudo/S.pbesol.dojo.upf
     MD5 check sum: 501737efeeef1fb1c631cda521d4e019
     Pseudo is Norm-conserving + core correction, Zval =  6.0
     Generated using ONCVPSP code by D. R. Hamann
     Using radial grid of 1146 points,  6 beta functions with: 
                l(1) =   0
                l(2) =   0
                l(3) =   1
                l(4) =   1
                l(5) =   2
                l(6) =   2

     point group C_3h (-6)  
     there are  6 classes
     the character table:

       E     C3    C3^2  s_h   S3    S3^5 
A'     1.00  1.00  1.00  1.00  1.00  1.00
E'     1.00 -0.50 -0.50  1.00 -0.50 -0.50
E'*    1.00 -0.50 -0.50  1.00 -0.50 -0.50
A''    1.00  1.00  1.00 -1.00 -1.00 -1.00
E''    1.00 -0.50 -0.50 -1.00  0.50  0.50
E''*   1.00 -0.50 -0.50 -1.00  0.50  0.50
     imaginary part
A'     0.00  0.00  0.00  0.00  0.00  0.00
E'     0.00  0.87 -0.87  0.00  0.87 -0.87
E'*    0.00 -0.87  0.87  0.00 -0.87  0.87
A''    0.00  0.00  0.00  0.00  0.00  0.00
E''    0.00  0.87 -0.87  0.00 -0.87  0.87
E''*   0.00 -0.87  0.87  0.00  0.87 -0.87

     the symmetry operations in each class and the name of the first element:

     E        1
                                                                 
     C3       5
                                                                 
     C3^2     6
                                                                 
     s_h      2
                                                                 
     S3       4
                                                                 
     S3^5     3
                                                                 


     Atomic displacements:
     There are    9 irreducible representations

     Representation     1      1 modes -  Done
     Irreps are as follows:

                     mode #   1
                     (   0.00000  -0.00000   ) 
                     (   0.00000  -0.00000   ) 
                     (   0.00000  -0.00000   ) 
                     (  -0.50000   0.00000   ) 
                     (  -0.00000   0.50000   ) 
                     (  -0.00000  -0.00000   ) 
                     (  -0.50000  -0.00000   ) 
                     (  -0.00000   0.50000   ) 
                     (   0.00000  -0.00000   ) 

     Representation     2      1 modes -  Done
     Irreps are as follows:

                     mode #   2
                     (  -0.70711   0.00000   ) 
                     (  -0.00000  -0.70711   ) 
                     (  -0.00000  -0.00000   ) 
                     (  -0.00000  -0.00000   ) 
                     (  -0.00000  -0.00000   ) 
                     (  -0.00000  -0.00000   ) 
                     (  -0.00000  -0.00000   ) 
                     (  -0.00000  -0.00000   ) 
                     (  -0.00000  -0.00000   ) 

     Representation     3      1 modes -  Done
     Irreps are as follows:

                     mode #   3
                     (  -0.00000   0.00000   ) 
                     (  -0.00000   0.00000   ) 
                     (  -0.00000   0.00000   ) 
                     (  -0.50000   0.00000   ) 
                     (  -0.00000  -0.50000   ) 
                     (  -0.00000   0.00000   ) 
                     (  -0.50000   0.00000   ) 
                     (  -0.00000  -0.50000   ) 
                     (   0.00000   0.00000   ) 

     Representation     4      1 modes -  Done
     Irreps are as follows:

                     mode #   4
                     (  -0.00000   0.00000   ) 
                     (  -0.00000   0.00000   ) 
                     (  -0.00000   0.00000   ) 
                     (   0.00000  -0.00000   ) 
                     (   0.00000   0.00000   ) 
                     (  -0.70711  -0.00000   ) 
                     (  -0.00000   0.00000   ) 
                     (  -0.00000  -0.00000   ) 
                     (   0.70711   0.00000   ) 

     Representation     5      1 modes -  Done
     Irreps are as follows:

                     mode #   5
                     (  -0.70711   0.00000   ) 
                     (   0.00000   0.70711   ) 
                     (  -0.00000  -0.00000   ) 
                     (  -0.00000  -0.00000   ) 
                     (  -0.00000  -0.00000   ) 
                     (  -0.00000  -0.00000   ) 
                     (  -0.00000  -0.00000   ) 
                     (  -0.00000  -0.00000   ) 
                     (  -0.00000  -0.00000   ) 

     Representation     6      1 modes -  Done
     Irreps are as follows:

                     mode #   6
                     (  -0.00000  -0.00000   ) 
                     (  -0.00000  -0.00000   ) 
                     (  -0.00000  -0.00000   ) 
                     (  -0.50000  -0.00000   ) 
                     (   0.00000   0.50000   ) 
                     (  -0.00000   0.00000   ) 
                     (   0.50000   0.00000   ) 
                     (   0.00000  -0.50000   ) 
                     (  -0.00000   0.00000   ) 

     Representation     7      1 modes -  Done
     Irreps are as follows:

                     mode #   7
                     (  -0.00000  -0.00000   ) 
                     (  -0.00000  -0.00000   ) 
                     (  -1.00000  -0.00000   ) 
                     (  -0.00000  -0.00000   ) 
                     (  -0.00000  -0.00000   ) 
                     (  -0.00000  -0.00000   ) 
                     (  -0.00000  -0.00000   ) 
                     (  -0.00000  -0.00000   ) 
                     (  -0.00000  -0.00000   ) 

     Representation     8      1 modes -  To be done
     Irreps are as follows:

                     mode #   8
                     (  -0.00000  -0.00000   ) 
                     (  -0.00000  -0.00000   ) 
                     (  -0.00000  -0.00000   ) 
                     (  -0.50000   0.00000   ) 
                     (  -0.00000  -0.50000   ) 
                     (  -0.00000  -0.00000   ) 
                     (   0.50000   0.00000   ) 
                     (  -0.00000   0.50000   ) 
                     (   0.00000  -0.00000   ) 

     Representation     9      1 modes -  To be done
     Irreps are as follows:

                     mode #   9
                     (  -0.00000  -0.00000   ) 
                     (  -0.00000  -0.00000   ) 
                     (  -0.00000  -0.00000   ) 
                     (   0.00000  -0.00000   ) 
                     (   0.00000   0.00000   ) 
                     (  -0.70711  -0.00000   ) 
                     (  -0.00000   0.00000   ) 
                     (  -0.00000  -0.00000   ) 
                     (  -0.70711  -0.00000   ) 


     Message from routine init_vloc:
     Interpolation table for Vloc re-allocated
     PHONON       :      4.84s CPU      5.39s WALL



     Representation #   8 mode #   8

     Self-consistent Calculation

      iter #   4 total cpu time :    17.8 secs   av.it.:  14.7
      thresh= 1.588E-06 alpha_mix =  0.700 |ddv_scf|^2 =  4.015E-12

      iter #   5 total cpu time :    26.8 secs   av.it.:  18.5
      thresh= 2.004E-07 alpha_mix =  0.700 |ddv_scf|^2 =  1.547E-13

      iter #   6 total cpu time :    35.6 secs   av.it.:  17.9
      thresh= 3.934E-08 alpha_mix =  0.700 |ddv_scf|^2 =  9.188E-16

     End of self-consistent calculation

     Convergence has been achieved 


     Representation #   9 mode #   9

     Self-consistent Calculation

      iter #   1 total cpu time :    40.8 secs   av.it.:   8.9
      thresh= 1.000E-02 alpha_mix =  0.700 |ddv_scf|^2 =  5.297E-08

      iter #   2 total cpu time :    49.7 secs   av.it.:  17.8
      thresh= 2.302E-05 alpha_mix =  0.700 |ddv_scf|^2 =  1.495E-08

      iter #   3 total cpu time :    58.3 secs   av.it.:  17.6
      thresh= 1.223E-05 alpha_mix =  0.700 |ddv_scf|^2 =  2.734E-09

      iter #   4 total cpu time :    66.8 secs   av.it.:  17.3
      thresh= 5.229E-06 alpha_mix =  0.700 |ddv_scf|^2 =  2.344E-11

      iter #   5 total cpu time :    75.7 secs   av.it.:  17.9
      thresh= 4.841E-07 alpha_mix =  0.700 |ddv_scf|^2 =  8.198E-14

      iter #   6 total cpu time :    84.5 secs   av.it.:  17.8
      thresh= 2.863E-08 alpha_mix =  0.700 |ddv_scf|^2 =  4.379E-16

     End of self-consistent calculation

     Convergence has been achieved 

     Number of q in the star =    2
     List of q in the star:
          1  -0.333333333  -0.577350269   0.000000000
          2   0.333333333  -0.577350269  -0.000000000

     Diagonalizing the dynamical matrix

     q = (   -0.333333333  -0.577350269   0.000000000 ) 

 **************************************************************************
     freq (    1) =       5.391954 [THz] =     179.856225 [cm-1]
     freq (    2) =       5.582469 [THz] =     186.211130 [cm-1]
     freq (    3) =       7.045506 [THz] =     235.012786 [cm-1]
     freq (    4) =       9.703533 [THz] =     323.675013 [cm-1]
     freq (    5) =      10.084994 [THz] =     336.399188 [cm-1]
     freq (    6) =      10.089812 [THz] =     336.559894 [cm-1]
     freq (    7) =      11.301627 [THz] =     376.981698 [cm-1]
     freq (    8) =      11.504871 [THz] =     383.761186 [cm-1]
     freq (    9) =      11.862927 [THz] =     395.704659 [cm-1]
 **************************************************************************

     Mode symmetry, C_3h (-6)   point group:

     freq (   1-   1) =        179.9  [cm-1]   --> E''                
     freq (   2-   2) =        186.2  [cm-1]   --> E'*                
     freq (   3-   3) =        235.0  [cm-1]   --> A'                 
     freq (   4-   4) =        323.7  [cm-1]   --> E''*               
     freq (   5-   5) =        336.4  [cm-1]   --> E'                 
     freq (   6-   6) =        336.6  [cm-1]   --> A''                
     freq (   7-   7) =        377.0  [cm-1]   --> E''                
     freq (   8-   8) =        383.8  [cm-1]   --> A'                 
     freq (   9-   9) =        395.7  [cm-1]   --> E'*                

     PHONON       :   1m18.32s CPU   1m24.61s WALL

     INITIALIZATION: 
     phq_setup    :      0.01s CPU      0.02s WALL (       1 calls)
     phq_init     :      0.90s CPU      0.98s WALL (       1 calls)

     phq_init     :      0.90s CPU      0.98s WALL (       1 calls)
     set_drhoc    :      0.00s CPU      0.00s WALL (       1 calls)
     init_vloc    :      0.12s CPU      0.12s WALL (       2 calls)
     init_us_1    :      0.00s CPU      0.00s WALL (       2 calls)
     init_us_2    :      0.11s CPU      0.12s WALL (    1540 calls)

     DYNAMICAL MATRIX:
     phqscf       :     73.45s CPU     79.18s WALL (       1 calls)
     dynmatrix    :      0.00s CPU      0.01s WALL (       1 calls)

     phqscf       :     73.45s CPU     79.18s WALL (       1 calls)
     solve_linter :     73.30s CPU     79.01s WALL (       2 calls)
     sth_kernel   :     68.63s CPU     72.07s WALL (       9 calls)
     h_prec       :      0.09s CPU      0.09s WALL (     990 calls)
     apply_dpot_b :      2.73s CPU      2.87s WALL (     880 calls)
     ortho        :      0.10s CPU      0.11s WALL (     990 calls)
     cgsolve      :     62.41s CPU     65.51s WALL (     990 calls)
     incdrhoscf   :      2.98s CPU      3.14s WALL (     990 calls)
                                        0.00s GPU  (     990 calls)
     dv_of_drho   :      0.03s CPU      0.03s WALL (       9 calls)
     mix_pot      :      2.45s CPU      4.46s WALL (       9 calls)
     drhodv       :      0.15s CPU      0.15s WALL (       2 calls)
     psymdvscf    :      1.05s CPU      1.13s WALL (       9 calls)

     dvqpsi_us    :      0.95s CPU      1.01s WALL (     220 calls)
                                        0.00s GPU  (     220 calls)
     dvqpsi_us_on :      0.17s CPU      0.18s WALL (     220 calls)

     add_vuspsi   :      1.11s CPU      1.18s WALL (   24542 calls)


      General routines
     calbec       :      6.33s CPU      6.68s WALL (   50404 calls)
     fft          :      0.73s CPU      0.80s WALL (     169 calls)
     ffts         :      0.14s CPU      0.15s WALL (     238 calls)
     fftw         :     54.71s CPU     57.46s WALL (  492616 calls)
     davcio       :      0.26s CPU      0.35s WALL (    5782 calls)
     write_rec    :      0.02s CPU      0.07s WALL (      11 calls)

      Additional routines
     ch_psi       :     60.41s CPU     63.40s WALL (   24542 calls)
     last         :      4.88s CPU      5.12s WALL (   24542 calls)
     Hesh         :      0.06s CPU      0.07s WALL (   24542 calls)
     ch_psi_all_k :      4.71s CPU      4.95s WALL (   24542 calls)
                                        0.00s GPU  (   24542 calls)
     ch_psi_calbe :      2.59s CPU      2.71s WALL (   24542 calls)
                                        0.00s GPU  (   24542 calls)
     h_psi_bgrp   :     55.29s CPU     58.03s WALL (   24542 calls)
     h_psi        :     55.23s CPU     57.96s WALL (   24542 calls)
     h_psi:pot    :     55.12s CPU     57.84s WALL (   24542 calls)
     h_psi:calbec :      2.94s CPU      3.08s WALL (   24542 calls)
     s_psi_bgrp   :      0.12s CPU      0.13s WALL (   50074 calls)


     PHONON       :   1m18.32s CPU   1m24.61s WALL


   This run was terminated on:  17:12:27   9Feb2026            

=------------------------------------------------------------------------------=
   JOB DONE.
=------------------------------------------------------------------------------=
[...]
                                                                                                                                                                                                                                                                                                                                                                                                                                                                                                                                                                                                                                                                                                                                                                                                                                                                                                                                                                                                                                                                                                                                                                                                                                                                                                                                                                                                                                                                                                                                                                                                                                                                                                                                                                                                                                                                                                                                                                                                                                                                                                                                                                                                                                                                                                                                                                                                                                                                                                                                                                                                                                                                                                                                                                                                                                                                                                                                                                                                                                                                                                                                                                                                                                                                                                                                                                                                                                                                                                                                                                                                                                                                                                                                                                                                                                                                                                                                                                                                                                                                                                                                                                                                                                                                                                                                                                                                                                                                                                                                                                                                                                                                                                                                                                                                                                                                                                                                                                                                                                                                                                                                                                                                                                                                                                                                                                                                                                                                                                                                                                                                                                                                                                                                                                                                                                                                                                                                                                                                                                                                                                                                                                                                                                                                                                                                                                                                                                                                                                                                                                                                                                                                                                                                                                                                                                                                                                                                                                                                                                                                                                                                                                                                                                                                                                                                                                                                                                                                                                                                                                                                                                                                                                                                                                                                                                                                                                                                                                                                                                                                                                                                                                                                                                                                                                                                                                                                                                                                                                                                                                                                                                                                                                                                                                                                                                                                                                                                                                                                                                                                                                                                                                                                                                                                                                                                                                                                                                                                                                                                                                                                                                                                                                                                                                                                                                                                                                                                                                                                                                                                                                                                                                                                                                                                                                                                                                                                                                                                                                                                                                                                                                                                                                                                                                                                                                                                                                                                                                                                                                                                                                                                                                                                                                                                                                                                                                                                                                                                                                                                                                                                                                                                                                                                                                                                                                                                                                                                                                                                                                                                                                                                                                                                                                                                                                                                                                                                                                                                                                                                                                                                                                                                                                                                                                                                                                                                                                                                                                                                                                                                                                                                                                                                                                                                                                                                                                                                                                                                                                                                                                                                                                                                                                                                                                                                                                                                                                                                                                                                                                                                                                                                                                                                                                                                                                                                                                                                                                                                                                                                                                                                                                                                                                                                                                                                                                                                                                                                                                                                                                                                                                                                                                                                                                                                                                                                                                                                                                                                                                                                                                                                                                                                                                                                                                                                                                                                                                                                                                                                                                                                                                                                                                                                                                                                                                                                                                                                                                                                                                                                                                                                                                                                                                                                                                                                                                                                                                                                                                                                                                                                                                                                                                                                                                                                                                                                                                                                                                                                                                                                                                                                                                                                                                                                                                                                                                                                                                                                                                                                                                                                                                                                                                                                                                                                                                                                                                                                                                                                                                                                                                                                                                                                                                                                                                                                                                                                                                                                                                                                                                                                                                                                                                                                                                                                                                                                                                                                                                                                                                                                                                                                                                                                                                                                                                                                                                                                                                                                                                                                                                                                                                                                                                                                                                                                                                                                                                                                                                                                                                                                                                                                                                                                                            
      iter #   3 total cpu time :  1162.4 secs   av.it.:  17.7
      thresh= 3.834E-05 alpha_mix =  0.700 |ddv_scf|^2 =  2.521E-10
