
     Program PHONON v.7.3.1 starts on  9Feb2026 at 18:18:36 

     This program is part of the open-source Quantum ESPRESSO suite
     for quantum simulation of materials; please cite
         "P. Giannozzi et al., J. Phys.:Condens. Matter 21 395502 (2009);
         "P. Giannozzi et al., J. Phys.:Condens. Matter 29 465901 (2017);
         "P. Giannozzi et al., J. Chem. Phys. 152 154105 (2020);
          URL http://www.quantum-espresso.org", 
     in publications or presentations arising from this work. More details at
     http://www.quantum-espresso.org/quote

     Parallel version (MPI), running on    32 processors

     MPI processes distributed on     1 nodes
     242934 MiB available memory on the printing compute node when the environment starts

     Waiting for input...
     Reading input from standard input
      Title line not specified: using 'default'.


     Dynamical matrices for q-points given in input
     (   7q-points):
       N         xq(1)         xq(2)         xq(3) 
       1   0.000000000   0.000000000   0.000000000
       2   0.000000000  -0.192450090   0.000000000
       3   0.000000000  -0.384900179   0.000000000
       4   0.000000000   0.577350269   0.000000000
       5  -0.166666667  -0.288675135   0.000000000
       6  -0.166666667  -0.481125224   0.000000000
       7  -0.333333333  -0.577350269   0.000000000

     Reading xml data from directory:

     ./MoS2.save/

     R & G space division:  proc/nbgrp/npool/nimage =      32
     Subspace diagonalization in iterative solution of the eigenvalue problem:
     one sub-group per band group will be used
     custom distributed-memory algorithm (size of sub-group:  2*  2 procs)


     IMPORTANT: XC functional enforced from input :
     Exchange-correlation= PBESOL
                           (   1   4  10   8   0   0   0)
     Any further DFT definition will be discarded
     Please, verify this is what you really want


     Parallelization info
     --------------------
     sticks:   dense  smooth     PW     G-vecs:    dense   smooth      PW
     Min          24      24      6                 3672     3672     552
     Max          25      25      7                 3700     3700     593
     Sum         769     769    223               117923   117923   18417

     Using Slab Decomposition

 ----2D----2D----2D----2D----2D----2D----2D----2D----2D----2D----2D----2D
  The code is running with the 2D cutoff
  Please refer to:
  Sohier, T., Calandra, M., & Mauri, F. (2017), 
  Density functional perturbation theory for gated two-dimensional heterostructures:
  Theoretical developments and application to flexural phonons in graphene.
  Physical Review B, 96(7), 75448. https://doi.org/10.1103/PhysRevB.96.075448
 ----2D----2D----2D----2D----2D----2D----2D----2D----2D----2D----2D----2D
     Reading collected, re-writing distributed wavefunctions in ./

     Saving dvscf to file. Distribute only q points, not irreducible representations.

     Calculation of q =    0.0000000  -0.3849002   0.0000000

     Parallelization info
     --------------------
     sticks:   dense  smooth     PW     G-vecs:    dense   smooth      PW
     Min          24      24      7                 3672     3672     623
     Max          25      25      8                 3700     3700     648
     Sum         769     769    241               117923   117923   20395

     Using Slab Decomposition


     Title: 
     default                                                                    


     bravais-lattice index     =            4
     lattice parameter (alat)  =       5.9358  a.u.
     unit-cell volume          =    1220.5221 (a.u.)^3
     number of atoms/cell      =            3
     number of atomic types    =            2
     number of electrons       =        26.00
     number of Kohn-Sham states=          200
     kinetic-energy cutoff     =      80.0000  Ry
     charge density cutoff     =     320.0000  Ry
     Exchange-correlation= PBESOL
                           (   1   4  10   8   0   0   0)

     celldm(1)=   5.935776  celldm(2)=   0.000000  celldm(3)=   6.738799
     celldm(4)=   0.000000  celldm(5)=   0.000000  celldm(6)=   0.000000

     crystal axes: (cart. coord. in units of alat)
               a(1) = (   1.000000   0.000000   0.000000 )  
               a(2) = (  -0.500000   0.866025   0.000000 )  
               a(3) = (   0.000000   0.000000   6.738799 )  

     reciprocal axes: (cart. coord. in units 2 pi/alat)
               b(1) = (  1.000000  0.577350 -0.000000 )  
               b(2) = (  0.000000  1.154701  0.000000 )  
               b(3) = (  0.000000 -0.000000  0.148394 )  


     PseudoPot. # 1 for Mo read from file:
     ./pseudo/Mo.pbesol.dojo.upf
     MD5 check sum: c40353276b9086539cda6b9e5a66907b
     Pseudo is Norm-conserving + core correction, Zval = 14.0
     Generated using ONCVPSP code by D. R. Hamann
     Using radial grid of 1640 points,  6 beta functions with: 
                l(1) =   0
                l(2) =   0
                l(3) =   1
                l(4) =   1
                l(5) =   2
                l(6) =   2

     PseudoPot. # 2 for S  read from file:
     ./pseudo/S.pbesol.dojo.upf
     MD5 check sum: 501737efeeef1fb1c631cda521d4e019
     Pseudo is Norm-conserving + core correction, Zval =  6.0
     Generated using ONCVPSP code by D. R. Hamann
     Using radial grid of 1146 points,  6 beta functions with: 
                l(1) =   0
                l(2) =   0
                l(3) =   1
                l(4) =   1
                l(5) =   2
                l(6) =   2

     atomic species   valence    mass     pseudopotential
     Mo               14.00    95.95000     Mo( 1.00)
     S                 6.00    32.06500     S ( 1.00)

     12 Sym. Ops. (no inversion) found


                                    s                        frac. trans.

      isym =  1     identity                                     

 cryst.   s( 1) = (     1          0          0      )
                  (     0          1          0      )
                  (     0          0          1      )

 cart.    s( 1) = (  1.0000000  0.0000000  0.0000000 )
                  (  0.0000000  1.0000000  0.0000000 )
                  (  0.0000000  0.0000000  1.0000000 )


      isym =  2     180 deg rotation - cart. axis [0,1,0]        

 cryst.   s( 2) = (    -1          0          0      )
                  (     1          1          0      )
                  (     0          0         -1      )

 cart.    s( 2) = ( -1.0000000  0.0000000  0.0000000 )
                  (  0.0000000  1.0000000  0.0000000 )
                  (  0.0000000  0.0000000 -1.0000000 )


      isym =  3     inv. 180 deg rotation - cart. axis [0,0,1]   

 cryst.   s( 3) = (     1          0          0      )
                  (     0          1          0      )
                  (     0          0         -1      )

 cart.    s( 3) = (  1.0000000  0.0000000  0.0000000 )
                  (  0.0000000  1.0000000  0.0000000 )
                  (  0.0000000  0.0000000 -1.0000000 )


      isym =  4     inv. 180 deg rotation - cart. axis [1,0,0]   

 cryst.   s( 4) = (    -1          0          0      )
                  (     1          1          0      )
                  (     0          0          1      )

 cart.    s( 4) = ( -1.0000000  0.0000000  0.0000000 )
                  (  0.0000000  1.0000000  0.0000000 )
                  (  0.0000000  0.0000000  1.0000000 )


      isym =  5     180 deg rotation - cryst. axis [1,-1,0]      

 cryst.   s( 5) = (     0         -1          0      )
                  (    -1          0          0      )
                  (     0          0         -1      )

 cart.    s( 5) = (  0.5000000 -0.8660254  0.0000000 )
                  ( -0.8660254 -0.5000000  0.0000000 )
                  (  0.0000000  0.0000000 -1.0000000 )


      isym =  6     180 deg rotation - cryst. axis [2,1,0]       

 cryst.   s( 6) = (     1          1          0      )
                  (     0         -1          0      )
                  (     0          0         -1      )

 cart.    s( 6) = (  0.5000000  0.8660254  0.0000000 )
                  (  0.8660254 -0.5000000  0.0000000 )
                  (  0.0000000  0.0000000 -1.0000000 )


      isym =  7     120 deg rotation - cryst. axis [0,0,1]       

 cryst.   s( 7) = (     0          1          0      )
                  (    -1         -1          0      )
                  (     0          0          1      )

 cart.    s( 7) = ( -0.5000000 -0.8660254  0.0000000 )
                  (  0.8660254 -0.5000000  0.0000000 )
                  (  0.0000000  0.0000000  1.0000000 )


      isym =  8     120 deg rotation - cryst. axis [0,0,-1]      

 cryst.   s( 8) = (    -1         -1          0      )
                  (     1          0          0      )
                  (     0          0          1      )

 cart.    s( 8) = ( -0.5000000  0.8660254  0.0000000 )
                  ( -0.8660254 -0.5000000  0.0000000 )
                  (  0.0000000  0.0000000  1.0000000 )


      isym =  9     inv.  60 deg rotation - cryst. axis [0,0,1]  

 cryst.   s( 9) = (    -1         -1          0      )
                  (     1          0          0      )
                  (     0          0         -1      )

 cart.    s( 9) = ( -0.5000000  0.8660254  0.0000000 )
                  ( -0.8660254 -0.5000000  0.0000000 )
                  (  0.0000000  0.0000000 -1.0000000 )


      isym = 10     inv.  60 deg rotation - cryst. axis [0,0,-1] 

 cryst.   s(10) = (     0          1          0      )
                  (    -1         -1          0      )
                  (     0          0         -1      )

 cart.    s(10) = ( -0.5000000 -0.8660254  0.0000000 )
                  (  0.8660254 -0.5000000  0.0000000 )
                  (  0.0000000  0.0000000 -1.0000000 )


      isym = 11     inv. 180 deg rotation - cryst. axis [0,1,0]  

 cryst.   s(11) = (     1          1          0      )
                  (     0         -1          0      )
                  (     0          0          1      )

 cart.    s(11) = (  0.5000000  0.8660254  0.0000000 )
                  (  0.8660254 -0.5000000  0.0000000 )
                  (  0.0000000  0.0000000  1.0000000 )


      isym = 12     inv. 180 deg rotation - cryst. axis [1,1,0]  

 cryst.   s(12) = (     0         -1          0      )
                  (    -1          0          0      )
                  (     0          0          1      )

 cart.    s(12) = (  0.5000000 -0.8660254  0.0000000 )
                  ( -0.8660254 -0.5000000  0.0000000 )
                  (  0.0000000  0.0000000  1.0000000 )


     point group D_3h (-62m)
     there are  6 classes
     the character table:

       E     2C3   3C2   s_h   2S3   3s_v 
A'_1   1.00  1.00  1.00  1.00  1.00  1.00
A'_2   1.00  1.00 -1.00  1.00  1.00 -1.00
E'     2.00 -1.00  0.00  2.00 -1.00  0.00
A''1   1.00  1.00  1.00 -1.00 -1.00 -1.00
A''2   1.00  1.00 -1.00 -1.00 -1.00  1.00
E''    2.00 -1.00  0.00 -2.00  1.00  0.00

     the symmetry operations in each class and the name of the first element:

     E        1
          identity                                               
     2C3      7    8
          120 deg rotation - cryst. axis [0,0,1]                 
     3C2      2    6    5
          180 deg rotation - cart. axis [0,1,0]                  
     s_h      3
          inv. 180 deg rotation - cart. axis [0,0,1]             
     2S3      9   10
          inv.  60 deg rotation - cryst. axis [0,0,1]            
     3s_v     4   11   12
          inv. 180 deg rotation - cart. axis [1,0,0]             

   Cartesian axes

     site n.     atom                  positions (alat units)
         1        Mo     tau(   1) = (   0.0000000   0.5773502   0.0000000  )
         2        S      tau(   2) = (   0.5000000   0.2886751   0.4961981  )
         3        S      tau(   3) = (   0.5000000   0.2886751  -0.4961981  )

   Crystallographic axes

     site n.     atom                  positions (cryst. coord.)
         1        Mo     tau(   1) = (  0.3333333  0.6666666  0.0000000  )
         2        S      tau(   2) = (  0.6666667  0.3333333  0.0736330  )
         3        S      tau(   3) = (  0.6666667  0.3333333 -0.0736330  )

     number of k points=    42
                       cart. coord. in units 2pi/alat
        k(    1) = (   0.0000000   0.0000000   0.0000000), wk =   0.0555556
        k(    2) = (   0.0000000  -0.3849002   0.0000000), wk =   0.0000000
        k(    3) = (   0.0000000   0.1924501   0.0000000), wk =   0.0555556
        k(    4) = (   0.0000000  -0.1924501   0.0000000), wk =   0.0000000
        k(    5) = (   0.0000000   0.3849002   0.0000000), wk =   0.0555556
        k(    6) = (   0.0000000   0.0000000   0.0000000), wk =   0.0000000
        k(    7) = (   0.0000000  -0.5773503   0.0000000), wk =   0.0555556
        k(    8) = (   0.0000000  -0.9622504   0.0000000), wk =   0.0000000
        k(    9) = (   0.1666667   0.2886751   0.0000000), wk =   0.1111111
        k(   10) = (   0.1666667  -0.0962250   0.0000000), wk =   0.0000000
        k(   11) = (   0.1666667   0.4811252   0.0000000), wk =   0.1111111
        k(   12) = (   0.1666667   0.0962250   0.0000000), wk =   0.0000000
        k(   13) = (   0.3333333   0.5773503   0.0000000), wk =   0.1111111
        k(   14) = (   0.3333333   0.1924501   0.0000000), wk =   0.0000000
        k(   15) = (  -0.1666667  -0.0962250   0.0000000), wk =   0.1111111
        k(   16) = (  -0.1666667  -0.4811252   0.0000000), wk =   0.0000000
        k(   17) = (   0.0000000  -0.1924501   0.0000000), wk =   0.0555556
        k(   18) = (   0.0000000  -0.5773503   0.0000000), wk =   0.0000000
        k(   19) = (  -0.1666667   0.0962250   0.0000000), wk =   0.1111111
        k(   20) = (  -0.1666667  -0.2886751   0.0000000), wk =   0.0000000
        k(   21) = (  -0.3333333  -0.1924501   0.0000000), wk =   0.1111111
        k(   22) = (  -0.3333333  -0.5773503   0.0000000), wk =   0.0000000
        k(   23) = (   0.0000000  -0.3849002   0.0000000), wk =   0.0555556
        k(   24) = (   0.0000000  -0.7698004   0.0000000), wk =   0.0000000
        k(   25) = (  -0.3333333   0.1924501   0.0000000), wk =   0.1111111
        k(   26) = (  -0.3333333  -0.1924501   0.0000000), wk =   0.0000000
        k(   27) = (   0.5000000   0.2886751   0.0000000), wk =   0.1111111
        k(   28) = (   0.5000000  -0.0962250   0.0000000), wk =   0.0000000
        k(   29) = (  -0.1666667  -0.2886751   0.0000000), wk =   0.1111111
        k(   30) = (  -0.1666667  -0.6735753   0.0000000), wk =   0.0000000
        k(   31) = (   0.3333333   0.0000000   0.0000000), wk =   0.1111111
        k(   32) = (   0.3333333  -0.3849002   0.0000000), wk =   0.0000000
        k(   33) = (  -0.3333333  -0.3849002   0.0000000), wk =   0.1111111
        k(   34) = (  -0.3333333  -0.7698004   0.0000000), wk =   0.0000000
        k(   35) = (   0.5000000  -0.0962250   0.0000000), wk =   0.1111111
        k(   36) = (   0.5000000  -0.4811252   0.0000000), wk =   0.0000000
        k(   37) = (  -0.1666667  -0.4811252   0.0000000), wk =   0.1111111
        k(   38) = (  -0.1666667  -0.8660254   0.0000000), wk =   0.0000000
        k(   39) = (  -0.3333333   0.3849002   0.0000000), wk =   0.1111111
        k(   40) = (  -0.3333333   0.0000000   0.0000000), wk =   0.0000000
        k(   41) = (   0.5000000   0.0962250   0.0000000), wk =   0.1111111
        k(   42) = (   0.5000000  -0.2886751   0.0000000), wk =   0.0000000

                       cryst. coord.
        k(    1) = (   0.0000000   0.0000000   0.0000000), wk =   0.0555556
        k(    2) = (   0.0000000  -0.3333333   0.0000000), wk =   0.0000000
        k(    3) = (   0.0000000   0.1666667   0.0000000), wk =   0.0555556
        k(    4) = (   0.0000000  -0.1666667   0.0000000), wk =   0.0000000
        k(    5) = (   0.0000000   0.3333333   0.0000000), wk =   0.0555556
        k(    6) = (   0.0000000   0.0000000   0.0000000), wk =   0.0000000
        k(    7) = (   0.0000000  -0.5000000   0.0000000), wk =   0.0555556
        k(    8) = (   0.0000000  -0.8333333   0.0000000), wk =   0.0000000
        k(    9) = (   0.1666667   0.1666667   0.0000000), wk =   0.1111111
        k(   10) = (   0.1666667  -0.1666667   0.0000000), wk =   0.0000000
        k(   11) = (   0.1666667   0.3333333   0.0000000), wk =   0.1111111
        k(   12) = (   0.1666667   0.0000000   0.0000000), wk =   0.0000000
        k(   13) = (   0.3333333   0.3333333   0.0000000), wk =   0.1111111
        k(   14) = (   0.3333333   0.0000000   0.0000000), wk =   0.0000000
        k(   15) = (  -0.1666667   0.0000000   0.0000000), wk =   0.1111111
        k(   16) = (  -0.1666667  -0.3333333   0.0000000), wk =   0.0000000
        k(   17) = (   0.0000000  -0.1666667   0.0000000), wk =   0.0555556
        k(   18) = (   0.0000000  -0.5000000   0.0000000), wk =   0.0000000
        k(   19) = (  -0.1666667   0.1666667   0.0000000), wk =   0.1111111
        k(   20) = (  -0.1666667  -0.1666667   0.0000000), wk =   0.0000000
        k(   21) = (  -0.3333333   0.0000000   0.0000000), wk =   0.1111111
        k(   22) = (  -0.3333333  -0.3333333   0.0000000), wk =   0.0000000
        k(   23) = (   0.0000000  -0.3333333   0.0000000), wk =   0.0555556
        k(   24) = (   0.0000000  -0.6666667   0.0000000), wk =   0.0000000
        k(   25) = (  -0.3333333   0.3333333   0.0000000), wk =   0.1111111
        k(   26) = (  -0.3333333   0.0000000   0.0000000), wk =   0.0000000
        k(   27) = (   0.5000000   0.0000000   0.0000000), wk =   0.1111111
        k(   28) = (   0.5000000  -0.3333333   0.0000000), wk =   0.0000000
        k(   29) = (  -0.1666667  -0.1666667   0.0000000), wk =   0.1111111
        k(   30) = (  -0.1666667  -0.5000000   0.0000000), wk =   0.0000000
        k(   31) = (   0.3333333  -0.1666667   0.0000000), wk =   0.1111111
        k(   32) = (   0.3333333  -0.5000000   0.0000000), wk =   0.0000000
        k(   33) = (  -0.3333333  -0.1666667   0.0000000), wk =   0.1111111
        k(   34) = (  -0.3333333  -0.5000000   0.0000000), wk =   0.0000000
        k(   35) = (   0.5000000  -0.3333333   0.0000000), wk =   0.1111111
        k(   36) = (   0.5000000  -0.6666667   0.0000000), wk =   0.0000000
        k(   37) = (  -0.1666667  -0.3333333   0.0000000), wk =   0.1111111
        k(   38) = (  -0.1666667  -0.6666667   0.0000000), wk =   0.0000000
        k(   39) = (  -0.3333333   0.5000000   0.0000000), wk =   0.1111111
        k(   40) = (  -0.3333333   0.1666667   0.0000000), wk =   0.0000000
        k(   41) = (   0.5000000  -0.1666667   0.0000000), wk =   0.1111111
        k(   42) = (   0.5000000  -0.5000000   0.0000000), wk =   0.0000000

     Dense  grid:   117923 G-vectors     FFT dimensions: (  36,  36, 240)

     Dynamical RAM for                 wfc:       1.40 MB

     Dynamical RAM for     wfc (w. buffer):       1.40 MB

     Dynamical RAM for           str. fact:       0.11 MB

     Dynamical RAM for           local pot:       0.02 MB

     Dynamical RAM for          nlocal pot:       0.38 MB

     Dynamical RAM for                qrad:       2.94 MB

     Dynamical RAM for          rho,v,vnew:       0.41 MB

     Dynamical RAM for           G-vectors:       0.24 MB

     Dynamical RAM for          h,s,v(r/c):       7.32 MB

     Dynamical RAM for          <psi|beta>:       0.16 MB

     Dynamical RAM for                 psi:       5.62 MB

     Dynamical RAM for                hpsi:       5.62 MB

     Dynamical RAM for      wfcinit/wfcrot:       3.72 MB

     Estimated static dynamical RAM per process >       6.07 MB

     Estimated max dynamical RAM per process >      24.79 MB

     Estimated total dynamical RAM >     793.13 MB
 ----2D----2D----2D----2D----2D----2D----2D----2D----2D----2D----2D----2D
  The code is running with the 2D cutoff
  Please refer to:
  Sohier, T., Calandra, M., & Mauri, F. (2017), 
  Density functional perturbation theory for gated two-dimensional heterostructures:
  Theoretical developments and application to flexural phonons in graphene.
  Physical Review B, 96(7), 75448. https://doi.org/10.1103/PhysRevB.96.075448
 ----2D----2D----2D----2D----2D----2D----2D----2D----2D----2D----2D----2D

     The potential is recalculated from file :
     ./_ph0/MoS2.save/charge-density

     Starting wfcs are   18 atomic +  182 random wfcs

     Band Structure Calculation
     Davidson diagonalization with overlap

     Computing kpt #:     1
     total cpu time spent up to now is       17.8 secs

     Computing kpt #:     2
     total cpu time spent up to now is       29.7 secs

     Computing kpt #:     3
     total cpu time spent up to now is       41.2 secs

     Computing kpt #:     4
     total cpu time spent up to now is       53.0 secs

     Computing kpt #:     5
     total cpu time spent up to now is       65.4 secs

     Computing kpt #:     6
     total cpu time spent up to now is       77.2 secs

     Computing kpt #:     7
     total cpu time spent up to now is       89.3 secs

     Computing kpt #:     8
     total cpu time spent up to now is      100.8 secs

     Computing kpt #:     9
     total cpu time spent up to now is      113.0 secs

     Computing kpt #:    10
     total cpu time spent up to now is      124.8 secs

     Computing kpt #:    11
     total cpu time spent up to now is      137.6 secs

     Computing kpt #:    12
     total cpu time spent up to now is      149.4 secs

     Computing kpt #:    13
     total cpu time spent up to now is      160.8 secs

     Computing kpt #:    14
     total cpu time spent up to now is      172.8 secs

     Computing kpt #:    15
     total cpu time spent up to now is      184.6 secs

     Computing kpt #:    16
     total cpu time spent up to now is      197.2 secs

     Computing kpt #:    17
     total cpu time spent up to now is      209.0 secs

     Computing kpt #:    18
     total cpu time spent up to now is      221.1 secs

     Computing kpt #:    19
     total cpu time spent up to now is      232.8 secs

     Computing kpt #:    20
     total cpu time spent up to now is      245.0 secs

     Computing kpt #:    21
     total cpu time spent up to now is      257.3 secs

     Computing kpt #:    22
     total cpu time spent up to now is      269.5 secs

     Computing kpt #:    23
     total cpu time spent up to now is      281.7 secs

     Computing kpt #:    24
     total cpu time spent up to now is      294.2 secs

     Computing kpt #:    25
     total cpu time spent up to now is      306.5 secs

     Computing kpt #:    26
     total cpu time spent up to now is      318.8 secs

     Computing kpt #:    27
     total cpu time spent up to now is      330.9 secs

     Computing kpt #:    28
     total cpu time spent up to now is      343.5 secs

     Computing kpt #:    29
     total cpu time spent up to now is      355.5 secs

     Computing kpt #:    30
     total cpu time spent up to now is      368.6 secs

     Computing kpt #:    31
     total cpu time spent up to now is      381.1 secs

     Computing kpt #:    32
     total cpu time spent up to now is      393.1 secs

     Computing kpt #:    33
     total cpu time spent up to now is      405.1 secs

     Computing kpt #:    34
     total cpu time spent up to now is      418.0 secs

     Computing kpt #:    35
     total cpu time spent up to now is      430.7 secs

     Computing kpt #:    36
     total cpu time spent up to now is      443.4 secs

     Computing kpt #:    37
     total cpu time spent up to now is      455.6 secs

     Computing kpt #:    38
     total cpu time spent up to now is      468.1 secs

     Computing kpt #:    39
     total cpu time spent up to now is      480.2 secs

     Computing kpt #:    40
     total cpu time spent up to now is      492.7 secs

     Computing kpt #:    41
     total cpu time spent up to now is      505.6 secs

     Computing kpt #:    42
     total cpu time spent up to now is      517.5 secs

     ethr =  3.85E-11,  avg # of iterations = 20.3

     total cpu time spent up to now is      517.5 secs

     End of band structure calculation

          k = 0.0000 0.0000 0.0000 ( 14855 PWs)   bands (ev):

   -66.6805 -40.8879 -40.6208 -40.6208 -20.1892 -18.8271 -11.7363  -8.5817
    -8.5817  -7.8097  -7.4236  -7.4236  -6.0357  -3.0685  -3.0685  -2.7946
    -2.7946  -0.3344  -0.1588   0.4729   2.1874   2.3424   3.1576   4.8594
     4.8594   5.3489   6.0029   6.8770   6.8770   7.1778   9.4676  10.1151
    10.2003  10.2003  10.5316  10.5316  10.6419  12.3453  13.9784  14.2331
    15.2592  16.2674  17.2825  17.2825  18.9017  18.9017  18.9107  19.2030
    19.6171  19.6171  19.6242  19.7511  19.7678  19.7678  20.2900  20.3338
    20.6186  20.6186  21.5391  21.5391  21.7491  21.9392  21.9647  21.9647
    22.2762  22.2762  22.3000  22.7266  22.7266  22.9137  23.7426  24.1821
    24.4545  24.4545  24.4607  24.4607  24.7597  25.1711  25.5672  25.5672
    25.6938  25.6938  25.7809  26.7423  27.3468  27.3468  27.8601  27.8601
    27.9226  28.6944  28.7746  29.0226  29.0226  29.6761  29.6761  30.1006
    30.1112  30.9239  30.9239  31.1186  31.4962  31.4962  31.6170  31.6170
    31.7935  32.3259  33.2685  33.3581  33.9070  33.9070  33.9297  33.9297
    34.6404  34.7032  35.5715  35.5715  35.6214  35.6214  36.2110  36.7707
    36.7707  37.0564  37.3843  37.4576  37.4576  37.8482  38.2872  38.6819
    38.6819  38.8306  38.8306  38.9655  39.8766  39.8766  40.7075  40.9206
    40.9206  41.6148  41.6148  41.6996  41.7962  41.9435  41.9435  42.2941
    42.6752  42.8065  42.8065  44.7632  44.8058  44.9433  44.9433  45.6302
    45.7252  45.7252  46.4322  46.4322  46.7172  46.8700  47.4134  47.4220
    47.4220  48.5702  48.7756  49.1370  49.1370  50.2041  50.2041  50.8885
    50.8885  50.9627  51.6367  52.1956  52.2354  52.2355  52.5184  52.5184
    52.9490  52.9490  53.3026  53.9804  53.9804  54.2079  54.2142  55.0797
    55.4149  55.6653  55.8666  55.8666  57.0067  57.0067  57.6628  57.6849
    57.6849  58.0545  58.0545  58.8612  58.8913  59.0352  59.0753  59.1004

     occupation numbers 
     1.0000   1.0000   1.0000   1.0000   1.0000   1.0000   1.0000   1.0000
     1.0000   1.0000   1.0000   1.0000   1.0000   0.0000   0.0000   0.0000
     0.0000   0.0000   0.0000   0.0000   0.0000   0.0000   0.0000   0.0000
     0.0000   0.0000   0.0000   0.0000   0.0000   0.0000   0.0000   0.0000
     0.0000   0.0000   0.0000   0.0000   0.0000   0.0000   0.0000   0.0000
     0.0000   0.0000   0.0000   0.0000   0.0000   0.0000   0.0000   0.0000
     0.0000   0.0000   0.0000   0.0000   0.0000   0.0000   0.0000   0.0000
     0.0000   0.0000   0.0000   0.0000   0.0000   0.0000   0.0000   0.0000
     0.0000   0.0000   0.0000   0.0000   0.0000   0.0000   0.0000   0.0000
     0.0000   0.0000   0.0000   0.0000   0.0000   0.0000   0.0000   0.0000
     0.0000   0.0000   0.0000   0.0000   0.0000   0.0000   0.0000   0.0000
     0.0000   0.0000   0.0000   0.0000   0.0000   0.0000   0.0000   0.0000
     0.0000   0.0000   0.0000   0.0000   0.0000   0.0000   0.0000   0.0000
     0.0000   0.0000   0.0000   0.0000   0.0000   0.0000   0.0000   0.0000
     0.0000   0.0000   0.0000   0.0000   0.0000   0.0000   0.0000   0.0000
     0.0000   0.0000   0.0000   0.0000   0.0000   0.0000   0.0000   0.0000
     0.0000   0.0000   0.0000   0.0000   0.0000   0.0000   0.0000   0.0000
     0.0000   0.0000   0.0000   0.0000   0.0000   0.0000   0.0000   0.0000
     0.0000   0.0000   0.0000   0.0000   0.0000   0.0000   0.0000   0.0000
     0.0000   0.0000   0.0000   0.0000   0.0000   0.0000   0.0000   0.0000
     0.0000   0.0000   0.0000   0.0000   0.0000   0.0000   0.0000   0.0000
     0.0000   0.0000   0.0000   0.0000   0.0000   0.0000   0.0000   0.0000
     0.0000   0.0000   0.0000   0.0000   0.0000   0.0000   0.0000   0.0000
     0.0000   0.0000   0.0000   0.0000   0.0000   0.0000   0.0000   0.0000
     0.0000   0.0000   0.0000   0.0000   0.0000   0.0000   0.0000   0.0000

          k = 0.0000-0.3849 0.0000 ( 14740 PWs)   bands (ev):

   -66.6466 -40.9473 -40.8216 -40.6957 -18.7820 -18.2611 -11.3513 -10.2724
    -9.9110  -8.8338  -7.6129  -7.2520  -6.9904  -3.6249  -3.5654  -2.4591
    -1.7013   1.4227   1.5913   1.9758   2.5696   3.2303   4.2262   4.5469
     5.6377   6.2102   6.5418   7.2399   7.8117   8.4505   9.0662   9.1730
     9.4508   9.5026   9.7909  11.5276  11.6286  11.7789  12.4935  12.8078
    13.8647  14.5309  14.6813  15.4480  15.5442  15.6718  15.9032  16.4684
    16.7841  16.8814  17.1461  17.8757  18.0547  18.6515  18.6708  18.9481
    19.3764  19.6026  19.7995  20.3984  21.0490  21.1655  21.2632  21.3216
    22.1789  22.3378  22.4599  22.6580  23.3045  23.3394  23.8754  24.6684
    25.0089  25.4504  25.4950  25.5061  26.2839  26.7378  26.8613  27.3352
    27.5418  27.5664  27.8222  28.5612  28.7949  28.8746  29.3643  29.4219
    29.5592  30.3283  30.8128  30.9476  31.1665  31.1913  31.2314  31.9125
    32.1458  32.1730  32.3395  32.6440  32.7938  32.8937  33.9533  33.9655
    34.0416  34.3030  34.5627  34.8302  35.4343  35.4494  35.7624  35.9213
    35.9330  36.3163  36.3220  36.9262  37.3705  37.4948  37.5430  37.7285
    37.9242  38.6798  38.9140  39.2502  39.2814  39.3532  39.6861  39.8763
    40.1938  40.3236  40.8153  41.1541  41.3346  41.4412  41.8199  41.9126
    42.0847  42.5187  42.7444  43.0466  43.0542  43.0841  43.1961  43.6406
    43.7812  43.9609  44.0573  44.1787  44.6011  44.7486  44.9011  45.1945
    45.7459  45.8874  46.1486  46.2677  46.3335  46.6269  46.7588  46.9789
    47.1667  47.5779  47.7165  47.8731  48.0155  48.3816  48.5244  49.3650
    49.3807  49.4399  49.5137  49.6305  49.7680  49.9901  50.1461  50.2674
    50.5042  51.0945  51.7849  51.7924  51.9455  52.2148  52.4692  53.2625
    53.3328  53.4946  53.6682  53.8264  53.8533  54.4067  54.4492  54.4523
    54.5715  54.8378  54.8811  55.5119  55.6062  55.6294  55.7375  56.2114

     occupation numbers 
     0.0000   0.0000   0.0000   0.0000   0.0000   0.0000   0.0000   0.0000
     0.0000   0.0000   0.0000   0.0000   0.0000   0.0000   0.0000   0.0000
     0.0000   0.0000   0.0000   0.0000   0.0000   0.0000   0.0000   0.0000
     0.0000   0.0000   0.0000   0.0000   0.0000   0.0000   0.0000   0.0000
     0.0000   0.0000   0.0000   0.0000   0.0000   0.0000   0.0000   0.0000
     0.0000   0.0000   0.0000   0.0000   0.0000   0.0000   0.0000   0.0000
     0.0000   0.0000   0.0000   0.0000   0.0000   0.0000   0.0000   0.0000
     0.0000   0.0000   0.0000   0.0000   0.0000   0.0000   0.0000   0.0000
     0.0000   0.0000   0.0000   0.0000   0.0000   0.0000   0.0000   0.0000
     0.0000   0.0000   0.0000   0.0000   0.0000   0.0000   0.0000   0.0000
     0.0000   0.0000   0.0000   0.0000   0.0000   0.0000   0.0000   0.0000
     0.0000   0.0000   0.0000   0.0000   0.0000   0.0000   0.0000   0.0000
     0.0000   0.0000   0.0000   0.0000   0.0000   0.0000   0.0000   0.0000
     0.0000   0.0000   0.0000   0.0000   0.0000   0.0000   0.0000   0.0000
     0.0000   0.0000   0.0000   0.0000   0.0000   0.0000   0.0000   0.0000
     0.0000   0.0000   0.0000   0.0000   0.0000   0.0000   0.0000   0.0000
     0.0000   0.0000   0.0000   0.0000   0.0000   0.0000   0.0000   0.0000
     0.0000   0.0000   0.0000   0.0000   0.0000   0.0000   0.0000   0.0000
     0.0000   0.0000   0.0000   0.0000   0.0000   0.0000   0.0000   0.0000
     0.0000   0.0000   0.0000   0.0000   0.0000   0.0000   0.0000   0.0000
     0.0000   0.0000   0.0000   0.0000   0.0000   0.0000   0.0000   0.0000
     0.0000   0.0000   0.0000   0.0000   0.0000   0.0000   0.0000   0.0000
     0.0000   0.0000   0.0000   0.0000   0.0000   0.0000   0.0000   0.0000
     0.0000   0.0000   0.0000   0.0000   0.0000   0.0000   0.0000   0.0000
     0.0000   0.0000   0.0000   0.0000   0.0000   0.0000   0.0000   0.0000

          k = 0.0000 0.1925 0.0000 ( 14809 PWs)   bands (ev):

   -66.6692 -40.8659 -40.7315 -40.6459 -19.7678 -18.6552 -11.3047  -9.3655
    -8.9572  -8.1468  -8.0019  -7.0280  -6.2972  -3.6005  -3.2815  -3.2075
    -2.4493   0.2842   0.3799   1.9845   2.7704   2.8177   3.9393   4.1569
     5.4135   5.9198   6.1086   6.4959   6.7276   7.1240   8.4831   9.2380
     9.2836  10.8596  10.9574  11.0863  13.2632  13.5451  13.7854  13.8284
    14.9914  15.6870  15.9389  16.2473  16.3559  16.4057  16.8254  16.9547
    17.2523  17.6452  18.0938  18.5049  18.8183  19.2792  19.3049  19.4751
    19.9773  20.1201  20.1686  20.5348  21.8839  22.0221  22.1077  22.4159
    23.1574  23.3622  23.3742  23.9080  23.9412  24.2542  24.4244  24.5621
    24.9420  25.3274  25.3408  25.4728  26.0450  26.1104  26.1523  26.1651
    26.7636  27.0174  27.2930  27.5758  27.7641  27.9009  28.0945  28.7016
    28.8015  28.8101  29.0902  29.3049  29.3838  29.6232  29.6775  30.0856
    30.4740  30.5401  31.1056  31.5059  31.5605  31.8951  31.9207  32.0347
    32.5470  33.1539  33.3582  33.4033  33.5248  33.8635  34.3297  34.8164
    34.8348  34.9634  35.0852  35.4890  35.9495  36.3662  36.7096  36.7683
    37.2018  37.2126  37.4015  37.6874  38.0749  38.7964  38.8768  39.2070
    39.3236  39.4975  40.0677  40.1622  40.9783  41.1388  41.1411  41.4815
    41.6305  41.7386  42.1209  42.1414  42.4628  43.0169  43.0857  43.2915
    43.8540  43.8799  44.0337  44.7600  44.8182  44.9007  45.3399  45.3458
    45.9194  45.9971  46.1283  46.5656  46.8330  47.0610  47.2965  47.4088
    48.0334  48.1382  48.6399  48.9175  49.2023  49.6751  50.2668  50.3102
    50.3154  50.6032  50.8158  50.8880  50.9752  51.2911  51.4887  51.5719
    52.0599  52.1493  52.5690  52.9004  53.0913  53.1615  53.2390  53.3974
    53.4318  54.2072  54.2437  54.6756  55.1430  55.2001  55.2869  55.4024
    55.5976  55.8638  56.2685  56.4289  56.6492  56.6889  56.7717  57.2469

     occupation numbers 
     1.0000   1.0000   1.0000   1.0000   1.0000   1.0000   1.0000   1.0000
     1.0000   1.0000   1.0000   1.0000   1.0000   0.0000   0.0000   0.0000
     0.0000   0.0000   0.0000   0.0000   0.0000   0.0000   0.0000   0.0000
     0.0000   0.0000   0.0000   0.0000   0.0000   0.0000   0.0000   0.0000
     0.0000   0.0000   0.0000   0.0000   0.0000   0.0000   0.0000   0.0000
     0.0000   0.0000   0.0000   0.0000   0.0000   0.0000   0.0000   0.0000
     0.0000   0.0000   0.0000   0.0000   0.0000   0.0000   0.0000   0.0000
     0.0000   0.0000   0.0000   0.0000   0.0000   0.0000   0.0000   0.0000
     0.0000   0.0000   0.0000   0.0000   0.0000   0.0000   0.0000   0.0000
     0.0000   0.0000   0.0000   0.0000   0.0000   0.0000   0.0000   0.0000
     0.0000   0.0000   0.0000   0.0000   0.0000   0.0000   0.0000   0.0000
     0.0000   0.0000   0.0000   0.0000   0.0000   0.0000   0.0000   0.0000
     0.0000   0.0000   0.0000   0.0000   0.0000   0.0000   0.0000   0.0000
     0.0000   0.0000   0.0000   0.0000   0.0000   0.0000   0.0000   0.0000
     0.0000   0.0000   0.0000   0.0000   0.0000   0.0000   0.0000   0.0000
     0.0000   0.0000   0.0000   0.0000   0.0000   0.0000   0.0000   0.0000
     0.0000   0.0000   0.0000   0.0000   0.0000   0.0000   0.0000   0.0000
     0.0000   0.0000   0.0000   0.0000   0.0000   0.0000   0.0000   0.0000
     0.0000   0.0000   0.0000   0.0000   0.0000   0.0000   0.0000   0.0000
     0.0000   0.0000   0.0000   0.0000   0.0000   0.0000   0.0000   0.0000
     0.0000   0.0000   0.0000   0.0000   0.0000   0.0000   0.0000   0.0000
     0.0000   0.0000   0.0000   0.0000   0.0000   0.0000   0.0000   0.0000
     0.0000   0.0000   0.0000   0.0000   0.0000   0.0000   0.0000   0.0000
     0.0000   0.0000   0.0000   0.0000   0.0000   0.0000   0.0000   0.0000
     0.0000   0.0000   0.0000   0.0000   0.0000   0.0000   0.0000   0.0000

          k = 0.0000-0.1925 0.0000 ( 14809 PWs)   bands (ev):

   -66.6692 -40.8659 -40.7315 -40.6459 -19.7678 -18.6552 -11.3047  -9.3655
    -8.9572  -8.1468  -8.0019  -7.0280  -6.2972  -3.6005  -3.2815  -3.2075
    -2.4493   0.2842   0.3799   1.9845   2.7704   2.8177   3.9393   4.1569
     5.4135   5.9198   6.1086   6.4959   6.7276   7.1240   8.4831   9.2380
     9.2836  10.8596  10.9574  11.0863  13.2632  13.5451  13.7854  13.8284
    14.9914  15.6870  15.9389  16.2473  16.3559  16.4057  16.8254  16.9547
    17.2523  17.6452  18.0938  18.5049  18.8183  19.2792  19.3049  19.4751
    19.9773  20.1201  20.1686  20.5348  21.8839  22.0221  22.1077  22.4159
    23.1574  23.3622  23.3742  23.9080  23.9412  24.2542  24.4244  24.5621
    24.9420  25.3274  25.3408  25.4728  26.0450  26.1104  26.1523  26.1651
    26.7636  27.0174  27.2930  27.5758  27.7641  27.9009  28.0945  28.7016
    28.8015  28.8101  29.0902  29.3049  29.3838  29.6232  29.6775  30.0856
    30.4740  30.5401  31.1056  31.5059  31.5605  31.8951  31.9207  32.0347
    32.5470  33.1539  33.3582  33.4033  33.5248  33.8635  34.3297  34.8164
    34.8348  34.9634  35.0852  35.4890  35.9495  36.3662  36.7096  36.7683
    37.2018  37.2126  37.4015  37.6874  38.0749  38.7964  38.8768  39.2070
    39.3236  39.4975  40.0677  40.1622  40.9783  41.1388  41.1411  41.4815
    41.6305  41.7386  42.1209  42.1414  42.4628  43.0169  43.0857  43.2915
    43.8540  43.8799  44.0337  44.7600  44.8182  44.9007  45.3399  45.3458
    45.9194  45.9971  46.1283  46.5656  46.8330  47.0610  47.2965  47.4088
    48.0334  48.1382  48.6399  48.9175  49.2023  49.6751  50.2668  50.3102
    50.3154  50.6032  50.8158  50.8880  50.9752  51.2911  51.4887  51.5719
    52.0599  52.1493  52.5690  52.9004  53.0913  53.1615  53.2390  53.3974
    53.4318  54.2072  54.2437  54.6756  55.1430  55.2001  55.2869  55.4024
    55.5976  55.8638  56.2685  56.4289  56.6492  56.6889  56.7717  57.2469

     occupation numbers 
     0.0000   0.0000   0.0000   0.0000   0.0000   0.0000   0.0000   0.0000
     0.0000   0.0000   0.0000   0.0000   0.0000   0.0000   0.0000   0.0000
     0.0000   0.0000   0.0000   0.0000   0.0000   0.0000   0.0000   0.0000
     0.0000   0.0000   0.0000   0.0000   0.0000   0.0000   0.0000   0.0000
     0.0000   0.0000   0.0000   0.0000   0.0000   0.0000   0.0000   0.0000
     0.0000   0.0000   0.0000   0.0000   0.0000   0.0000   0.0000   0.0000
     0.0000   0.0000   0.0000   0.0000   0.0000   0.0000   0.0000   0.0000
     0.0000   0.0000   0.0000   0.0000   0.0000   0.0000   0.0000   0.0000
     0.0000   0.0000   0.0000   0.0000   0.0000   0.0000   0.0000   0.0000
     0.0000   0.0000   0.0000   0.0000   0.0000   0.0000   0.0000   0.0000
     0.0000   0.0000   0.0000   0.0000   0.0000   0.0000   0.0000   0.0000
     0.0000   0.0000   0.0000   0.0000   0.0000   0.0000   0.0000   0.0000
     0.0000   0.0000   0.0000   0.0000   0.0000   0.0000   0.0000   0.0000
     0.0000   0.0000   0.0000   0.0000   0.0000   0.0000   0.0000   0.0000
     0.0000   0.0000   0.0000   0.0000   0.0000   0.0000   0.0000   0.0000
     0.0000   0.0000   0.0000   0.0000   0.0000   0.0000   0.0000   0.0000
     0.0000   0.0000   0.0000   0.0000   0.0000   0.0000   0.0000   0.0000
     0.0000   0.0000   0.0000   0.0000   0.0000   0.0000   0.0000   0.0000
     0.0000   0.0000   0.0000   0.0000   0.0000   0.0000   0.0000   0.0000
     0.0000   0.0000   0.0000   0.0000   0.0000   0.0000   0.0000   0.0000
     0.0000   0.0000   0.0000   0.0000   0.0000   0.0000   0.0000   0.0000
     0.0000   0.0000   0.0000   0.0000   0.0000   0.0000   0.0000   0.0000
     0.0000   0.0000   0.0000   0.0000   0.0000   0.0000   0.0000   0.0000
     0.0000   0.0000   0.0000   0.0000   0.0000   0.0000   0.0000   0.0000
     0.0000   0.0000   0.0000   0.0000   0.0000   0.0000   0.0000   0.0000

          k = 0.0000 0.3849 0.0000 ( 14740 PWs)   bands (ev):

   -66.6466 -40.9473 -40.8216 -40.6957 -18.7820 -18.2611 -11.3513 -10.2724
    -9.9110  -8.8338  -7.6129  -7.2520  -6.9904  -3.6249  -3.5654  -2.4591
    -1.7013   1.4227   1.5913   1.9758   2.5696   3.2303   4.2262   4.5469
     5.6377   6.2102   6.5418   7.2399   7.8117   8.4505   9.0662   9.1730
     9.4508   9.5026   9.7909  11.5276  11.6286  11.7789  12.4935  12.8078
    13.8647  14.5309  14.6813  15.4480  15.5442  15.6718  15.9032  16.4684
    16.7841  16.8814  17.1461  17.8757  18.0547  18.6515  18.6708  18.9481
    19.3764  19.6026  19.7995  20.3984  21.0490  21.1655  21.2632  21.3216
    22.1789  22.3378  22.4599  22.6580  23.3045  23.3394  23.8754  24.6684
    25.0089  25.4504  25.4950  25.5061  26.2839  26.7378  26.8613  27.3352
    27.5418  27.5664  27.8222  28.5612  28.7949  28.8746  29.3643  29.4219
    29.5592  30.3283  30.8128  30.9476  31.1665  31.1913  31.2314  31.9125
    32.1458  32.1730  32.3395  32.6440  32.7938  32.8937  33.9533  33.9655
    34.0416  34.3030  34.5627  34.8302  35.4343  35.4494  35.7624  35.9213
    35.9330  36.3163  36.3220  36.9262  37.3705  37.4948  37.5430  37.7285
    37.9242  38.6798  38.9140  39.2502  39.2814  39.3532  39.6861  39.8763
    40.1938  40.3236  40.8153  41.1541  41.3346  41.4412  41.8199  41.9126
    42.0847  42.5187  42.7444  43.0466  43.0542  43.0841  43.1961  43.6406
    43.7812  43.9609  44.0573  44.1787  44.6011  44.7486  44.9011  45.1945
    45.7459  45.8874  46.1486  46.2677  46.3335  46.6269  46.7588  46.9789
    47.1667  47.5779  47.7165  47.8731  48.0155  48.3816  48.5244  49.3650
    49.3807  49.4399  49.5137  49.6305  49.7680  49.9901  50.1461  50.2674
    50.5042  51.0945  51.7849  51.7924  51.9455  52.2148  52.4692  53.2625
    53.3328  53.4946  53.6682  53.8264  53.8533  54.4067  54.4492  54.4523
    54.5715  54.8378  54.8811  55.5119  55.6062  55.6294  55.7375  56.2114

     occupation numbers 
     1.0000   1.0000   1.0000   1.0000   1.0000   1.0000   1.0000   1.0000
     1.0000   1.0000   1.0000   1.0000   1.0000   0.0000   0.0000   0.0000
     0.0000   0.0000   0.0000   0.0000   0.0000   0.0000   0.0000   0.0000
     0.0000   0.0000   0.0000   0.0000   0.0000   0.0000   0.0000   0.0000
     0.0000   0.0000   0.0000   0.0000   0.0000   0.0000   0.0000   0.0000
     0.0000   0.0000   0.0000   0.0000   0.0000   0.0000   0.0000   0.0000
     0.0000   0.0000   0.0000   0.0000   0.0000   0.0000   0.0000   0.0000
     0.0000   0.0000   0.0000   0.0000   0.0000   0.0000   0.0000   0.0000
     0.0000   0.0000   0.0000   0.0000   0.0000   0.0000   0.0000   0.0000
     0.0000   0.0000   0.0000   0.0000   0.0000   0.0000   0.0000   0.0000
     0.0000   0.0000   0.0000   0.0000   0.0000   0.0000   0.0000   0.0000
     0.0000   0.0000   0.0000   0.0000   0.0000   0.0000   0.0000   0.0000
     0.0000   0.0000   0.0000   0.0000   0.0000   0.0000   0.0000   0.0000
     0.0000   0.0000   0.0000   0.0000   0.0000   0.0000   0.0000   0.0000
     0.0000   0.0000   0.0000   0.0000   0.0000   0.0000   0.0000   0.0000
     0.0000   0.0000   0.0000   0.0000   0.0000   0.0000   0.0000   0.0000
     0.0000   0.0000   0.0000   0.0000   0.0000   0.0000   0.0000   0.0000
     0.0000   0.0000   0.0000   0.0000   0.0000   0.0000   0.0000   0.0000
     0.0000   0.0000   0.0000   0.0000   0.0000   0.0000   0.0000   0.0000
     0.0000   0.0000   0.0000   0.0000   0.0000   0.0000   0.0000   0.0000
     0.0000   0.0000   0.0000   0.0000   0.0000   0.0000   0.0000   0.0000
     0.0000   0.0000   0.0000   0.0000   0.0000   0.0000   0.0000   0.0000
     0.0000   0.0000   0.0000   0.0000   0.0000   0.0000   0.0000   0.0000
     0.0000   0.0000   0.0000   0.0000   0.0000   0.0000   0.0000   0.0000
     0.0000   0.0000   0.0000   0.0000   0.0000   0.0000   0.0000   0.0000

          k = 0.0000 0.0000 0.0000 ( 14855 PWs)   bands (ev):

   -66.6805 -40.8879 -40.6208 -40.6208 -20.1892 -18.8271 -11.7363  -8.5817
    -8.5817  -7.8097  -7.4236  -7.4236  -6.0357  -3.0685  -3.0685  -2.7946
    -2.7946  -0.3344  -0.1588   0.4729   2.1874   2.3424   3.1576   4.8594
     4.8594   5.3489   6.0029   6.8770   6.8770   7.1778   9.4676  10.1151
    10.2003  10.2003  10.5316  10.5316  10.6419  12.3453  13.9784  14.2331
    15.2592  16.2674  17.2825  17.2825  18.9017  18.9017  18.9107  19.2030
    19.6171  19.6171  19.6242  19.7511  19.7678  19.7678  20.2900  20.3338
    20.6186  20.6186  21.5391  21.5391  21.7491  21.9392  21.9647  21.9647
    22.2762  22.2762  22.3000  22.7266  22.7266  22.9137  23.7426  24.1821
    24.4545  24.4545  24.4607  24.4607  24.7597  25.1711  25.5672  25.5672
    25.6938  25.6938  25.7809  26.7423  27.3468  27.3468  27.8601  27.8601
    27.9226  28.6944  28.7746  29.0226  29.0226  29.6761  29.6761  30.1006
    30.1112  30.9239  30.9239  31.1186  31.4962  31.4962  31.6170  31.6170
    31.7935  32.3259  33.2685  33.3581  33.9070  33.9070  33.9297  33.9297
    34.6404  34.7032  35.5715  35.5715  35.6214  35.6214  36.2110  36.7707
    36.7707  37.0564  37.3843  37.4576  37.4576  37.8482  38.2872  38.6819
    38.6819  38.8306  38.8306  38.9655  39.8766  39.8766  40.7075  40.9206
    40.9206  41.6148  41.6148  41.6996  41.7962  41.9435  41.9435  42.2941
    42.6752  42.8065  42.8065  44.7632  44.8058  44.9433  44.9433  45.6302
    45.7252  45.7252  46.4322  46.4322  46.7172  46.8700  47.4134  47.4220
    47.4220  48.5702  48.7756  49.1370  49.1370  50.2041  50.2041  50.8885
    50.8885  50.9627  51.6367  52.1956  52.2354  52.2355  52.5184  52.5184
    52.9490  52.9490  53.3026  53.9804  53.9804  54.2079  54.2142  55.0797
    55.4149  55.6653  55.8666  55.8666  57.0067  57.0067  57.6628  57.6849
    57.6849  58.0545  58.0545  58.8612  58.8913  59.0352  59.0753  59.1004

     occupation numbers 
     0.0000   0.0000   0.0000   0.0000   0.0000   0.0000   0.0000   0.0000
     0.0000   0.0000   0.0000   0.0000   0.0000   0.0000   0.0000   0.0000
     0.0000   0.0000   0.0000   0.0000   0.0000   0.0000   0.0000   0.0000
     0.0000   0.0000   0.0000   0.0000   0.0000   0.0000   0.0000   0.0000
     0.0000   0.0000   0.0000   0.0000   0.0000   0.0000   0.0000   0.0000
     0.0000   0.0000   0.0000   0.0000   0.0000   0.0000   0.0000   0.0000
     0.0000   0.0000   0.0000   0.0000   0.0000   0.0000   0.0000   0.0000
     0.0000   0.0000   0.0000   0.0000   0.0000   0.0000   0.0000   0.0000
     0.0000   0.0000   0.0000   0.0000   0.0000   0.0000   0.0000   0.0000
     0.0000   0.0000   0.0000   0.0000   0.0000   0.0000   0.0000   0.0000
     0.0000   0.0000   0.0000   0.0000   0.0000   0.0000   0.0000   0.0000
     0.0000   0.0000   0.0000   0.0000   0.0000   0.0000   0.0000   0.0000
     0.0000   0.0000   0.0000   0.0000   0.0000   0.0000   0.0000   0.0000
     0.0000   0.0000   0.0000   0.0000   0.0000   0.0000   0.0000   0.0000
     0.0000   0.0000   0.0000   0.0000   0.0000   0.0000   0.0000   0.0000
     0.0000   0.0000   0.0000   0.0000   0.0000   0.0000   0.0000   0.0000
     0.0000   0.0000   0.0000   0.0000   0.0000   0.0000   0.0000   0.0000
     0.0000   0.0000   0.0000   0.0000   0.0000   0.0000   0.0000   0.0000
     0.0000   0.0000   0.0000   0.0000   0.0000   0.0000   0.0000   0.0000
     0.0000   0.0000   0.0000   0.0000   0.0000   0.0000   0.0000   0.0000
     0.0000   0.0000   0.0000   0.0000   0.0000   0.0000   0.0000   0.0000
     0.0000   0.0000   0.0000   0.0000   0.0000   0.0000   0.0000   0.0000
     0.0000   0.0000   0.0000   0.0000   0.0000   0.0000   0.0000   0.0000
     0.0000   0.0000   0.0000   0.0000   0.0000   0.0000   0.0000   0.0000
     0.0000   0.0000   0.0000   0.0000   0.0000   0.0000   0.0000   0.0000

          k = 0.0000-0.5774 0.0000 ( 14702 PWs)   bands (ev):

   -66.6352 -41.0526 -40.7993 -40.7204 -18.1655 -18.0290 -11.9130 -10.9067
   -10.1272  -9.1645  -7.8785  -6.8444  -6.6180  -3.5589  -3.0518  -2.0134
    -1.4875   0.2127   1.8613   2.3456   3.1116   3.7837   4.5885   5.1768
     5.3646   5.6909   5.8300   7.0293   7.4223   7.9323   8.4393   9.6851
    10.2084  10.2599  10.9437  11.3851  11.7317  12.1294  12.4639  13.0570
    13.5574  13.7224  14.0810  14.1626  14.7348  15.2447  15.9030  16.2596
    16.2624  16.7592  16.7825  17.1069  17.7185  17.7617  18.3657  18.5934
    18.8724  18.9342  19.2798  19.4229  20.3624  20.7917  21.1724  21.3437
    21.7530  22.2303  22.2329  22.4162  23.0331  23.9891  24.1110  24.6499
    25.2177  25.3906  25.7195  25.9246  26.4881  26.9032  26.9237  27.0430
    27.1030  27.5344  28.1768  28.8519  29.0633  29.7557  30.1262  30.2878
    30.3119  30.8035  31.0289  31.6512  31.8305  31.9644  32.5610  32.8881
    32.9420  32.9963  33.7829  33.9970  34.0131  34.2437  34.7872  34.9786
    35.1706  35.2446  35.4043  35.6170  35.6993  35.8326  36.1331  36.3450
    36.4258  36.7492  37.0579  37.3450  37.4045  37.7456  37.7989  38.0475
    38.2072  38.3515  38.8969  38.9219  38.9910  39.1574  39.6262  39.9225
    40.0397  40.7167  41.1922  41.2309  41.3475  41.5398  41.9703  42.1396
    42.2101  42.2574  42.6599  42.6834  43.2076  43.4161  43.5590  43.8037
    43.9742  44.1337  44.4336  44.6884  44.8189  45.1698  45.4646  45.6767
    45.7814  46.0278  46.1534  46.4762  46.5996  46.8768  47.0093  47.0777
    47.2588  47.2892  47.6906  47.8882  48.2150  48.5906  48.7233  49.0545
    49.0948  49.4522  49.5515  49.5783  49.7328  49.8421  49.8557  49.9371
    51.0173  51.0613  51.1143  51.2838  51.4709  51.6356  51.8138  51.8203
    51.9677  52.3937  52.5377  53.0051  53.0231  53.1111  53.4253  53.6576
    54.1336  54.4565  54.8106  54.8610  54.9806  55.0800  55.1179  55.1237

     occupation numbers 
     1.0000   1.0000   1.0000   1.0000   1.0000   1.0000   1.0000   1.0000
     1.0000   1.0000   1.0000   1.0000   1.0000   0.0000   0.0000   0.0000
     0.0000   0.0000   0.0000   0.0000   0.0000   0.0000   0.0000   0.0000
     0.0000   0.0000   0.0000   0.0000   0.0000   0.0000   0.0000   0.0000
     0.0000   0.0000   0.0000   0.0000   0.0000   0.0000   0.0000   0.0000
     0.0000   0.0000   0.0000   0.0000   0.0000   0.0000   0.0000   0.0000
     0.0000   0.0000   0.0000   0.0000   0.0000   0.0000   0.0000   0.0000
     0.0000   0.0000   0.0000   0.0000   0.0000   0.0000   0.0000   0.0000
     0.0000   0.0000   0.0000   0.0000   0.0000   0.0000   0.0000   0.0000
     0.0000   0.0000   0.0000   0.0000   0.0000   0.0000   0.0000   0.0000
     0.0000   0.0000   0.0000   0.0000   0.0000   0.0000   0.0000   0.0000
     0.0000   0.0000   0.0000   0.0000   0.0000   0.0000   0.0000   0.0000
     0.0000   0.0000   0.0000   0.0000   0.0000   0.0000   0.0000   0.0000
     0.0000   0.0000   0.0000   0.0000   0.0000   0.0000   0.0000   0.0000
     0.0000   0.0000   0.0000   0.0000   0.0000   0.0000   0.0000   0.0000
     0.0000   0.0000   0.0000   0.0000   0.0000   0.0000   0.0000   0.0000
     0.0000   0.0000   0.0000   0.0000   0.0000   0.0000   0.0000   0.0000
     0.0000   0.0000   0.0000   0.0000   0.0000   0.0000   0.0000   0.0000
     0.0000   0.0000   0.0000   0.0000   0.0000   0.0000   0.0000   0.0000
     0.0000   0.0000   0.0000   0.0000   0.0000   0.0000   0.0000   0.0000
     0.0000   0.0000   0.0000   0.0000   0.0000   0.0000   0.0000   0.0000
     0.0000   0.0000   0.0000   0.0000   0.0000   0.0000   0.0000   0.0000
     0.0000   0.0000   0.0000   0.0000   0.0000   0.0000   0.0000   0.0000
     0.0000   0.0000   0.0000   0.0000   0.0000   0.0000   0.0000   0.0000
     0.0000   0.0000   0.0000   0.0000   0.0000   0.0000   0.0000   0.0000

          k = 0.0000-0.9623 0.0000 ( 14809 PWs)   bands (ev):

   -66.6692 -40.8659 -40.7315 -40.6459 -19.7678 -18.6552 -11.3047  -9.3655
    -8.9572  -8.1468  -8.0019  -7.0280  -6.2972  -3.6005  -3.2815  -3.2075
    -2.4493   0.2842   0.3799   1.9845   2.7704   2.8177   3.9393   4.1569
     5.4135   5.9198   6.1086   6.4959   6.7276   7.1240   8.4831   9.2380
     9.2836  10.8596  10.9574  11.0863  13.2632  13.5451  13.7854  13.8284
    14.9914  15.6870  15.9389  16.2473  16.3559  16.4057  16.8254  16.9547
    17.2523  17.6452  18.0938  18.5049  18.8183  19.2792  19.3049  19.4751
    19.9773  20.1201  20.1686  20.5348  21.8839  22.0221  22.1077  22.4159
    23.1574  23.3622  23.3742  23.9080  23.9412  24.2542  24.4244  24.5621
    24.9420  25.3274  25.3408  25.4728  26.0450  26.1104  26.1523  26.1651
    26.7636  27.0174  27.2930  27.5758  27.7641  27.9009  28.0945  28.7016
    28.8015  28.8101  29.0902  29.3049  29.3838  29.6232  29.6775  30.0856
    30.4740  30.5401  31.1056  31.5059  31.5605  31.8951  31.9207  32.0347
    32.5470  33.1539  33.3582  33.4033  33.5248  33.8635  34.3297  34.8164
    34.8348  34.9634  35.0852  35.4890  35.9495  36.3662  36.7096  36.7683
    37.2018  37.2126  37.4015  37.6874  38.0749  38.7964  38.8768  39.2070
    39.3236  39.4975  40.0677  40.1622  40.9783  41.1388  41.1411  41.4815
    41.6305  41.7386  42.1209  42.1414  42.4628  43.0169  43.0857  43.2915
    43.8540  43.8799  44.0337  44.7600  44.8182  44.9007  45.3399  45.3458
    45.9194  45.9971  46.1283  46.5656  46.8330  47.0610  47.2965  47.4088
    48.0334  48.1382  48.6399  48.9175  49.2023  49.6751  50.2668  50.3102
    50.3154  50.6032  50.8158  50.8880  50.9752  51.2911  51.4887  51.5719
    52.0599  52.1493  52.5690  52.9004  53.0913  53.1615  53.2390  53.3974
    53.4318  54.2072  54.2437  54.6756  55.1430  55.2001  55.2869  55.4024
    55.5976  55.8638  56.2685  56.4289  56.6492  56.6889  56.7717  57.2469

     occupation numbers 
     0.0000   0.0000   0.0000   0.0000   0.0000   0.0000   0.0000   0.0000
     0.0000   0.0000   0.0000   0.0000   0.0000   0.0000   0.0000   0.0000
     0.0000   0.0000   0.0000   0.0000   0.0000   0.0000   0.0000   0.0000
     0.0000   0.0000   0.0000   0.0000   0.0000   0.0000   0.0000   0.0000
     0.0000   0.0000   0.0000   0.0000   0.0000   0.0000   0.0000   0.0000
     0.0000   0.0000   0.0000   0.0000   0.0000   0.0000   0.0000   0.0000
     0.0000   0.0000   0.0000   0.0000   0.0000   0.0000   0.0000   0.0000
     0.0000   0.0000   0.0000   0.0000   0.0000   0.0000   0.0000   0.0000
     0.0000   0.0000   0.0000   0.0000   0.0000   0.0000   0.0000   0.0000
     0.0000   0.0000   0.0000   0.0000   0.0000   0.0000   0.0000   0.0000
     0.0000   0.0000   0.0000   0.0000   0.0000   0.0000   0.0000   0.0000
     0.0000   0.0000   0.0000   0.0000   0.0000   0.0000   0.0000   0.0000
     0.0000   0.0000   0.0000   0.0000   0.0000   0.0000   0.0000   0.0000
     0.0000   0.0000   0.0000   0.0000   0.0000   0.0000   0.0000   0.0000
     0.0000   0.0000   0.0000   0.0000   0.0000   0.0000   0.0000   0.0000
     0.0000   0.0000   0.0000   0.0000   0.0000   0.0000   0.0000   0.0000
     0.0000   0.0000   0.0000   0.0000   0.0000   0.0000   0.0000   0.0000
     0.0000   0.0000   0.0000   0.0000   0.0000   0.0000   0.0000   0.0000
     0.0000   0.0000   0.0000   0.0000   0.0000   0.0000   0.0000   0.0000
     0.0000   0.0000   0.0000   0.0000   0.0000   0.0000   0.0000   0.0000
     0.0000   0.0000   0.0000   0.0000   0.0000   0.0000   0.0000   0.0000
     0.0000   0.0000   0.0000   0.0000   0.0000   0.0000   0.0000   0.0000
     0.0000   0.0000   0.0000   0.0000   0.0000   0.0000   0.0000   0.0000
     0.0000   0.0000   0.0000   0.0000   0.0000   0.0000   0.0000   0.0000
     0.0000   0.0000   0.0000   0.0000   0.0000   0.0000   0.0000   0.0000

          k = 0.1667 0.2887 0.0000 ( 14767 PWs)   bands (ev):

   -66.6523 -40.8736 -40.8327 -40.7044 -19.0551 -18.3635 -11.0252  -9.8154
    -9.7263  -9.2260  -7.9213  -6.9755  -6.7692  -4.0044  -3.3683  -3.2043
    -1.6126   1.2574   1.3730   3.0593   3.3789   3.4840   3.9541   4.2557
     5.6301   5.6846   5.9369   6.5040   6.6912   7.9012   8.6728   9.0308
     9.7304  10.9840  11.6610  11.7926  11.8143  12.0036  12.5619  12.6417
    13.8833  14.0676  14.2573  14.3883  15.0603  16.0126  16.3003  16.8360
    16.8392  17.2676  17.4279  17.7863  18.1216  18.9109  19.0335  19.1814
    20.0817  20.2333  20.6128  20.9172  21.6477  21.7769  21.9701  22.0136
    22.3971  22.6449  22.7986  23.2384  23.5992  23.6119  24.1236  24.1414
    24.6293  24.8452  25.5219  25.6775  25.9032  25.9442  26.2576  27.1137
    27.3599  27.4030  27.7536  27.8164  27.9673  28.6423  29.1480  29.1964
    29.4220  29.4669  29.9233  30.6363  30.8513  31.0887  31.3623  31.5116
    31.7728  32.0784  32.3123  32.4854  32.7235  32.9254  33.1025  33.2252
    33.6338  33.9950  34.0347  34.2106  34.3781  34.8200  35.2768  35.4087
    35.8350  36.2083  36.5962  36.8371  36.9473  36.9970  37.4411  37.7339
    38.1279  38.1869  38.4723  38.5596  38.6975  39.0087  39.3117  39.5563
    39.5901  40.0132  40.4088  40.9583  40.9884  41.4961  41.6406  41.7664
    41.9678  42.0697  42.6051  42.6493  42.7543  42.8214  43.1604  43.6640
    43.8901  43.9083  44.3396  44.4443  44.7136  45.2414  45.3244  45.3381
    46.0433  46.0872  46.1970  46.3892  46.4448  46.8011  47.0869  47.3516
    47.3540  47.8651  48.3384  48.6983  48.7358  48.9297  49.0311  49.2387
    49.5616  49.6291  49.8280  50.0447  50.5080  50.5618  50.9317  51.1171
    51.4766  52.0179  52.0550  52.2914  52.5284  52.7931  52.8416  52.9415
    53.1380  53.2973  53.4674  53.7125  54.0977  54.1797  54.5555  54.6838
    54.8204  55.0671  55.1499  55.6344  55.6966  55.8847  55.9207  56.5875

     occupation numbers 
     1.0000   1.0000   1.0000   1.0000   1.0000   1.0000   1.0000   1.0000
     1.0000   1.0000   1.0000   1.0000   1.0000   0.0000   0.0000   0.0000
     0.0000   0.0000   0.0000   0.0000   0.0000   0.0000   0.0000   0.0000
     0.0000   0.0000   0.0000   0.0000   0.0000   0.0000   0.0000   0.0000
     0.0000   0.0000   0.0000   0.0000   0.0000   0.0000   0.0000   0.0000
     0.0000   0.0000   0.0000   0.0000   0.0000   0.0000   0.0000   0.0000
     0.0000   0.0000   0.0000   0.0000   0.0000   0.0000   0.0000   0.0000
     0.0000   0.0000   0.0000   0.0000   0.0000   0.0000   0.0000   0.0000
     0.0000   0.0000   0.0000   0.0000   0.0000   0.0000   0.0000   0.0000
     0.0000   0.0000   0.0000   0.0000   0.0000   0.0000   0.0000   0.0000
     0.0000   0.0000   0.0000   0.0000   0.0000   0.0000   0.0000   0.0000
     0.0000   0.0000   0.0000   0.0000   0.0000   0.0000   0.0000   0.0000
     0.0000   0.0000   0.0000   0.0000   0.0000   0.0000   0.0000   0.0000
     0.0000   0.0000   0.0000   0.0000   0.0000   0.0000   0.0000   0.0000
     0.0000   0.0000   0.0000   0.0000   0.0000   0.0000   0.0000   0.0000
     0.0000   0.0000   0.0000   0.0000   0.0000   0.0000   0.0000   0.0000
     0.0000   0.0000   0.0000   0.0000   0.0000   0.0000   0.0000   0.0000
     0.0000   0.0000   0.0000   0.0000   0.0000   0.0000   0.0000   0.0000
     0.0000   0.0000   0.0000   0.0000   0.0000   0.0000   0.0000   0.0000
     0.0000   0.0000   0.0000   0.0000   0.0000   0.0000   0.0000   0.0000
     0.0000   0.0000   0.0000   0.0000   0.0000   0.0000   0.0000   0.0000
     0.0000   0.0000   0.0000   0.0000   0.0000   0.0000   0.0000   0.0000
     0.0000   0.0000   0.0000   0.0000   0.0000   0.0000   0.0000   0.0000
     0.0000   0.0000   0.0000   0.0000   0.0000   0.0000   0.0000   0.0000
     0.0000   0.0000   0.0000   0.0000   0.0000   0.0000   0.0000   0.0000

          k = 0.1667-0.0962 0.0000 ( 14809 PWs)   bands (ev):

   -66.6692 -40.8659 -40.7315 -40.6459 -19.7678 -18.6552 -11.3047  -9.3655
    -8.9572  -8.1468  -8.0019  -7.0280  -6.2972  -3.6005  -3.2815  -3.2075
    -2.4493   0.2842   0.3799   1.9845   2.7704   2.8177   3.9393   4.1569
     5.4135   5.9198   6.1086   6.4959   6.7276   7.1240   8.4831   9.2380
     9.2836  10.8596  10.9574  11.0863  13.2632  13.5451  13.7854  13.8284
    14.9914  15.6870  15.9389  16.2473  16.3559  16.4057  16.8254  16.9547
    17.2523  17.6452  18.0938  18.5049  18.8183  19.2792  19.3049  19.4751
    19.9773  20.1201  20.1686  20.5348  21.8839  22.0221  22.1077  22.4159
    23.1574  23.3622  23.3742  23.9080  23.9412  24.2542  24.4244  24.5621
    24.9420  25.3274  25.3408  25.4728  26.0450  26.1104  26.1523  26.1651
    26.7636  27.0174  27.2930  27.5758  27.7641  27.9009  28.0945  28.7016
    28.8015  28.8102  29.0902  29.3049  29.3838  29.6232  29.6775  30.0856
    30.4740  30.5401  31.1056  31.5059  31.5605  31.8951  31.9207  32.0347
    32.5470  33.1539  33.3582  33.4033  33.5248  33.8635  34.3297  34.8164
    34.8348  34.9634  35.0852  35.4890  35.9495  36.3662  36.7096  36.7683
    37.2018  37.2126  37.4015  37.6874  38.0749  38.7964  38.8768  39.2070
    39.3236  39.4975  40.0677  40.1622  40.9783  41.1388  41.1411  41.4815
    41.6305  41.7386  42.1209  42.1414  42.4628  43.0169  43.0857  43.2915
    43.8540  43.8799  44.0337  44.7600  44.8182  44.9007  45.3399  45.3458
    45.9194  45.9971  46.1283  46.5656  46.8330  47.0610  47.2965  47.4088
    48.0334  48.1382  48.6399  48.9175  49.2023  49.6751  50.2668  50.3102
    50.3154  50.6032  50.8158  50.8880  50.9752  51.2911  51.4887  51.5719
    52.0599  52.1493  52.5690  52.9004  53.0913  53.1615  53.2390  53.3974
    53.4318  54.2072  54.2437  54.6756  55.1430  55.2001  55.2869  55.4024
    55.5976  55.8638  56.2685  56.4289  56.6492  56.6889  56.7717  57.2469

     occupation numbers 
     0.0000   0.0000   0.0000   0.0000   0.0000   0.0000   0.0000   0.0000
     0.0000   0.0000   0.0000   0.0000   0.0000   0.0000   0.0000   0.0000
     0.0000   0.0000   0.0000   0.0000   0.0000   0.0000   0.0000   0.0000
     0.0000   0.0000   0.0000   0.0000   0.0000   0.0000   0.0000   0.0000
     0.0000   0.0000   0.0000   0.0000   0.0000   0.0000   0.0000   0.0000
     0.0000   0.0000   0.0000   0.0000   0.0000   0.0000   0.0000   0.0000
     0.0000   0.0000   0.0000   0.0000   0.0000   0.0000   0.0000   0.0000
     0.0000   0.0000   0.0000   0.0000   0.0000   0.0000   0.0000   0.0000
     0.0000   0.0000   0.0000   0.0000   0.0000   0.0000   0.0000   0.0000
     0.0000   0.0000   0.0000   0.0000   0.0000   0.0000   0.0000   0.0000
     0.0000   0.0000   0.0000   0.0000   0.0000   0.0000   0.0000   0.0000
     0.0000   0.0000   0.0000   0.0000   0.0000   0.0000   0.0000   0.0000
     0.0000   0.0000   0.0000   0.0000   0.0000   0.0000   0.0000   0.0000
     0.0000   0.0000   0.0000   0.0000   0.0000   0.0000   0.0000   0.0000
     0.0000   0.0000   0.0000   0.0000   0.0000   0.0000   0.0000   0.0000
     0.0000   0.0000   0.0000   0.0000   0.0000   0.0000   0.0000   0.0000
     0.0000   0.0000   0.0000   0.0000   0.0000   0.0000   0.0000   0.0000
     0.0000   0.0000   0.0000   0.0000   0.0000   0.0000   0.0000   0.0000
     0.0000   0.0000   0.0000   0.0000   0.0000   0.0000   0.0000   0.0000
     0.0000   0.0000   0.0000   0.0000   0.0000   0.0000   0.0000   0.0000
     0.0000   0.0000   0.0000   0.0000   0.0000   0.0000   0.0000   0.0000
     0.0000   0.0000   0.0000   0.0000   0.0000   0.0000   0.0000   0.0000
     0.0000   0.0000   0.0000   0.0000   0.0000   0.0000   0.0000   0.0000
     0.0000   0.0000   0.0000   0.0000   0.0000   0.0000   0.0000   0.0000
     0.0000   0.0000   0.0000   0.0000   0.0000   0.0000   0.0000   0.0000

          k = 0.1667 0.4811 0.0000 ( 14724 PWs)   bands (ev):

   -66.6352 -40.9988 -40.7993 -40.7767 -18.1892 -18.0091 -11.4321 -11.0062
    -9.8508  -9.2448  -8.3473  -7.6871  -6.4500  -3.6368  -3.0053  -2.5519
    -1.3646   1.1066   2.7427   2.7535   3.6455   3.8274   4.6230   4.7889
     5.3372   6.0652   6.7062   7.3345   7.5286   8.0138   8.2894   8.6599
     9.5056   9.9554  10.2430  10.6153  10.7219  11.2142  12.1390  12.5135
    12.7346  13.5167  13.8751  14.0896  14.4699  15.1623  15.3627  15.9190
    16.4436  16.9325  17.1252  17.7026  17.8109  18.3226  19.1754  19.2503
    19.7522  19.8826  20.5653  20.6961  20.9612  21.1967  21.6473  22.2132
    22.5418  22.7505  22.9914  23.0814  23.3220  23.6522  23.9812  24.1566
    24.5444  25.6133  25.7643  26.1791  26.3005  26.6015  26.8595  27.1223
    27.3032  27.5268  27.9196  28.3670  28.6658  28.9124  29.3190  29.5174
    30.0155  30.0411  30.5750  30.8311  31.0923  31.4252  31.6622  31.9997
    32.2811  32.6593  32.8621  33.2741  33.7538  33.9277  34.0123  34.2341
    34.6813  34.8502  35.2627  35.5145  35.5429  35.9233  36.3033  36.3555
    36.8601  36.9546  37.2046  37.2231  37.6877  37.7994  38.2354  38.3859
    38.6718  38.9516  39.0354  39.3559  39.4145  39.7167  40.1757  40.1850
    40.3812  40.8790  40.9639  41.1408  41.3043  41.6202  41.8602  42.2929
    42.3097  42.5540  42.6726  43.0544  43.2879  43.4626  43.5875  43.8000
    44.1595  44.4638  44.6120  44.8472  44.9313  45.3103  45.3401  45.5654
    45.7708  45.9847  46.0741  46.2888  46.7276  46.9270  46.9490  47.0907
    47.4706  47.8050  48.3230  48.4179  48.6029  48.7687  49.1745  49.2015
    49.4899  49.5890  49.7715  50.1152  50.2087  50.5309  50.8017  51.0231
    51.1397  51.2654  51.8368  51.8380  52.0957  52.1767  52.4852  52.5886
    52.7575  52.9738  53.1169  53.3499  53.4236  53.8940  54.0884  54.2740
    54.3825  54.6505  54.8111  54.9529  55.2219  55.2677  55.4673  55.5985

     occupation numbers 
     1.0000   1.0000   1.0000   1.0000   1.0000   1.0000   1.0000   1.0000
     1.0000   1.0000   1.0000   1.0000   1.0000   0.0000   0.0000   0.0000
     0.0000   0.0000   0.0000   0.0000   0.0000   0.0000   0.0000   0.0000
     0.0000   0.0000   0.0000   0.0000   0.0000   0.0000   0.0000   0.0000
     0.0000   0.0000   0.0000   0.0000   0.0000   0.0000   0.0000   0.0000
     0.0000   0.0000   0.0000   0.0000   0.0000   0.0000   0.0000   0.0000
     0.0000   0.0000   0.0000   0.0000   0.0000   0.0000   0.0000   0.0000
     0.0000   0.0000   0.0000   0.0000   0.0000   0.0000   0.0000   0.0000
     0.0000   0.0000   0.0000   0.0000   0.0000   0.0000   0.0000   0.0000
     0.0000   0.0000   0.0000   0.0000   0.0000   0.0000   0.0000   0.0000
     0.0000   0.0000   0.0000   0.0000   0.0000   0.0000   0.0000   0.0000
     0.0000   0.0000   0.0000   0.0000   0.0000   0.0000   0.0000   0.0000
     0.0000   0.0000   0.0000   0.0000   0.0000   0.0000   0.0000   0.0000
     0.0000   0.0000   0.0000   0.0000   0.0000   0.0000   0.0000   0.0000
     0.0000   0.0000   0.0000   0.0000   0.0000   0.0000   0.0000   0.0000
     0.0000   0.0000   0.0000   0.0000   0.0000   0.0000   0.0000   0.0000
     0.0000   0.0000   0.0000   0.0000   0.0000   0.0000   0.0000   0.0000
     0.0000   0.0000   0.0000   0.0000   0.0000   0.0000   0.0000   0.0000
     0.0000   0.0000   0.0000   0.0000   0.0000   0.0000   0.0000   0.0000
     0.0000   0.0000   0.0000   0.0000   0.0000   0.0000   0.0000   0.0000
     0.0000   0.0000   0.0000   0.0000   0.0000   0.0000   0.0000   0.0000
     0.0000   0.0000   0.0000   0.0000   0.0000   0.0000   0.0000   0.0000
     0.0000   0.0000   0.0000   0.0000   0.0000   0.0000   0.0000   0.0000
     0.0000   0.0000   0.0000   0.0000   0.0000   0.0000   0.0000   0.0000
     0.0000   0.0000   0.0000   0.0000   0.0000   0.0000   0.0000   0.0000

          k = 0.1667 0.0962 0.0000 ( 14809 PWs)   bands (ev):

   -66.6692 -40.8659 -40.7315 -40.6459 -19.7678 -18.6552 -11.3047  -9.3655
    -8.9572  -8.1468  -8.0019  -7.0280  -6.2972  -3.6005  -3.2815  -3.2075
    -2.4493   0.2842   0.3799   1.9845   2.7704   2.8177   3.9393   4.1569
     5.4135   5.9198   6.1086   6.4959   6.7276   7.1240   8.4831   9.2380
     9.2836  10.8596  10.9574  11.0863  13.2632  13.5451  13.7854  13.8284
    14.9914  15.6870  15.9389  16.2473  16.3559  16.4057  16.8254  16.9547
    17.2523  17.6452  18.0938  18.5049  18.8183  19.2792  19.3049  19.4751
    19.9773  20.1201  20.1686  20.5348  21.8839  22.0221  22.1077  22.4159
    23.1574  23.3622  23.3742  23.9080  23.9412  24.2542  24.4244  24.5621
    24.9420  25.3274  25.3408  25.4728  26.0450  26.1104  26.1523  26.1651
    26.7636  27.0174  27.2930  27.5758  27.7641  27.9009  28.0945  28.7016
    28.8015  28.8102  29.0902  29.3049  29.3838  29.6232  29.6775  30.0856
    30.4740  30.5401  31.1056  31.5059  31.5605  31.8951  31.9207  32.0347
    32.5470  33.1539  33.3582  33.4033  33.5248  33.8635  34.3297  34.8164
    34.8348  34.9634  35.0852  35.4890  35.9495  36.3662  36.7096  36.7683
    37.2018  37.2126  37.4015  37.6874  38.0749  38.7964  38.8768  39.2070
    39.3236  39.4975  40.0677  40.1622  40.9783  41.1388  41.1411  41.4815
    41.6305  41.7386  42.1209  42.1414  42.4628  43.0169  43.0857  43.2915
    43.8540  43.8799  44.0337  44.7600  44.8182  44.9007  45.3399  45.3458
    45.9194  45.9971  46.1283  46.5656  46.8330  47.0610  47.2965  47.4088
    48.0334  48.1382  48.6399  48.9175  49.2023  49.6751  50.2668  50.3102
    50.3154  50.6032  50.8158  50.8880  50.9752  51.2911  51.4887  51.5719
    52.0599  52.1493  52.5690  52.9004  53.0913  53.1615  53.2390  53.3974
    53.4318  54.2072  54.2437  54.6756  55.1430  55.2001  55.2869  55.4024
    55.5976  55.8638  56.2685  56.4289  56.6492  56.6889  56.7717  57.2469

     occupation numbers 
     0.0000   0.0000   0.0000   0.0000   0.0000   0.0000   0.0000   0.0000
     0.0000   0.0000   0.0000   0.0000   0.0000   0.0000   0.0000   0.0000
     0.0000   0.0000   0.0000   0.0000   0.0000   0.0000   0.0000   0.0000
     0.0000   0.0000   0.0000   0.0000   0.0000   0.0000   0.0000   0.0000
     0.0000   0.0000   0.0000   0.0000   0.0000   0.0000   0.0000   0.0000
     0.0000   0.0000   0.0000   0.0000   0.0000   0.0000   0.0000   0.0000
     0.0000   0.0000   0.0000   0.0000   0.0000   0.0000   0.0000   0.0000
     0.0000   0.0000   0.0000   0.0000   0.0000   0.0000   0.0000   0.0000
     0.0000   0.0000   0.0000   0.0000   0.0000   0.0000   0.0000   0.0000
     0.0000   0.0000   0.0000   0.0000   0.0000   0.0000   0.0000   0.0000
     0.0000   0.0000   0.0000   0.0000   0.0000   0.0000   0.0000   0.0000
     0.0000   0.0000   0.0000   0.0000   0.0000   0.0000   0.0000   0.0000
     0.0000   0.0000   0.0000   0.0000   0.0000   0.0000   0.0000   0.0000
     0.0000   0.0000   0.0000   0.0000   0.0000   0.0000   0.0000   0.0000
     0.0000   0.0000   0.0000   0.0000   0.0000   0.0000   0.0000   0.0000
     0.0000   0.0000   0.0000   0.0000   0.0000   0.0000   0.0000   0.0000
     0.0000   0.0000   0.0000   0.0000   0.0000   0.0000   0.0000   0.0000
     0.0000   0.0000   0.0000   0.0000   0.0000   0.0000   0.0000   0.0000
     0.0000   0.0000   0.0000   0.0000   0.0000   0.0000   0.0000   0.0000
     0.0000   0.0000   0.0000   0.0000   0.0000   0.0000   0.0000   0.0000
     0.0000   0.0000   0.0000   0.0000   0.0000   0.0000   0.0000   0.0000
     0.0000   0.0000   0.0000   0.0000   0.0000   0.0000   0.0000   0.0000
     0.0000   0.0000   0.0000   0.0000   0.0000   0.0000   0.0000   0.0000
     0.0000   0.0000   0.0000   0.0000   0.0000   0.0000   0.0000   0.0000
     0.0000   0.0000   0.0000   0.0000   0.0000   0.0000   0.0000   0.0000

          k = 0.3333 0.5774 0.0000 ( 14718 PWs)   bands (ev):

   -66.6295 -40.9464 -40.8965 -40.7882 -17.8715 -17.8501 -11.5567 -10.6898
   -10.1640  -9.5316  -8.9120  -8.1444  -5.9633  -4.1564  -2.9104  -2.2496
    -0.8337   1.3407   1.6234   3.6519   4.6364   5.3858   5.7318   5.9707
     6.0406   6.4124   6.9769   7.2154   7.4825   7.4867   7.5159   7.8460
     8.4099   9.1863   9.4583   9.6749   9.8834  10.5572  10.9268  11.6925
    12.6082  12.8756  13.4740  13.4745  13.8003  14.1934  14.6031  16.0261
    17.4894  17.7031  17.8857  18.0190  18.1495  19.0260  19.0858  19.6348
    19.6813  20.1574  20.9822  21.2514  21.3675  21.4532  22.0498  22.0849
    22.4261  22.6607  23.6821  23.7045  23.8393  23.8806  23.9617  25.2561
    25.4451  26.0022  26.4516  26.7084  26.7422  26.9524  27.2674  27.3417
    27.4615  27.7595  27.8560  27.9827  28.7531  29.0739  29.1511  29.1912
    29.4781  29.6735  30.3279  30.4566  30.5842  30.9212  31.1058  31.6455
    31.9606  32.2619  32.5849  32.6281  32.6395  33.1569  33.1651  33.1936
    33.5702  33.6814  34.5979  34.8878  35.1748  35.8493  35.8813  36.0276
    36.7535  36.7804  36.8453  36.9447  37.7716  38.0335  38.4121  38.6209
    38.7322  38.8293  39.0986  39.3460  39.4594  39.4668  39.5925  40.9051
    41.4617  41.9076  42.1041  42.4177  42.6310  42.6853  43.1337  43.1583
    43.5959  43.7679  43.8322  44.3043  44.9059  45.1908  45.5108  45.7040
    45.7254  45.8433  45.8901  46.0725  46.0833  46.1807  46.3501  46.9215
    46.9655  47.1268  47.1389  47.1431  47.3076  47.7477  47.7964  47.9473
    48.2099  48.3216  48.4334  48.5149  48.6886  48.6992  48.8826  48.9908
    49.2100  49.2149  49.6369  49.7713  50.0022  50.1497  50.2309  50.4454
    50.7142  50.7873  50.9953  51.3045  51.3626  51.4396  51.6914  51.8730
    51.9088  52.1419  52.2250  52.6844  52.6952  52.7116  53.0779  53.1200
    53.2037  53.3333  53.5314  54.0734  54.1713  54.5645  54.6729  54.7635

     occupation numbers 
     1.0000   1.0000   1.0000   1.0000   1.0000   1.0000   1.0000   1.0000
     1.0000   1.0000   1.0000   1.0000   1.0000   0.0000   0.0000   0.0000
     0.0000   0.0000   0.0000   0.0000   0.0000   0.0000   0.0000   0.0000
     0.0000   0.0000   0.0000   0.0000   0.0000   0.0000   0.0000   0.0000
     0.0000   0.0000   0.0000   0.0000   0.0000   0.0000   0.0000   0.0000
     0.0000   0.0000   0.0000   0.0000   0.0000   0.0000   0.0000   0.0000
     0.0000   0.0000   0.0000   0.0000   0.0000   0.0000   0.0000   0.0000
     0.0000   0.0000   0.0000   0.0000   0.0000   0.0000   0.0000   0.0000
     0.0000   0.0000   0.0000   0.0000   0.0000   0.0000   0.0000   0.0000
     0.0000   0.0000   0.0000   0.0000   0.0000   0.0000   0.0000   0.0000
     0.0000   0.0000   0.0000   0.0000   0.0000   0.0000   0.0000   0.0000
     0.0000   0.0000   0.0000   0.0000   0.0000   0.0000   0.0000   0.0000
     0.0000   0.0000   0.0000   0.0000   0.0000   0.0000   0.0000   0.0000
     0.0000   0.0000   0.0000   0.0000   0.0000   0.0000   0.0000   0.0000
     0.0000   0.0000   0.0000   0.0000   0.0000   0.0000   0.0000   0.0000
     0.0000   0.0000   0.0000   0.0000   0.0000   0.0000   0.0000   0.0000
     0.0000   0.0000   0.0000   0.0000   0.0000   0.0000   0.0000   0.0000
     0.0000   0.0000   0.0000   0.0000   0.0000   0.0000   0.0000   0.0000
     0.0000   0.0000   0.0000   0.0000   0.0000   0.0000   0.0000   0.0000
     0.0000   0.0000   0.0000   0.0000   0.0000   0.0000   0.0000   0.0000
     0.0000   0.0000   0.0000   0.0000   0.0000   0.0000   0.0000   0.0000
     0.0000   0.0000   0.0000   0.0000   0.0000   0.0000   0.0000   0.0000
     0.0000   0.0000   0.0000   0.0000   0.0000   0.0000   0.0000   0.0000
     0.0000   0.0000   0.0000   0.0000   0.0000   0.0000   0.0000   0.0000
     0.0000   0.0000   0.0000   0.0000   0.0000   0.0000   0.0000   0.0000

          k = 0.3333 0.1925 0.0000 ( 14740 PWs)   bands (ev):

   -66.6466 -40.9473 -40.8216 -40.6957 -18.7820 -18.2611 -11.3513 -10.2724
    -9.9110  -8.8338  -7.6129  -7.2520  -6.9904  -3.6249  -3.5654  -2.4591
    -1.7013   1.4227   1.5913   1.9758   2.5696   3.2303   4.2262   4.5469
     5.6377   6.2102   6.5418   7.2399   7.8117   8.4505   9.0662   9.1730
     9.4508   9.5026   9.7909  11.5276  11.6286  11.7789  12.4935  12.8078
    13.8647  14.5309  14.6813  15.4480  15.5442  15.6718  15.9032  16.4684
    16.7841  16.8814  17.1461  17.8757  18.0547  18.6515  18.6708  18.9481
    19.3764  19.6026  19.7995  20.3984  21.0490  21.1655  21.2632  21.3216
    22.1789  22.3378  22.4600  22.6580  23.3045  23.3394  23.8754  24.6684
    25.0089  25.4504  25.4950  25.5061  26.2839  26.7378  26.8613  27.3352
    27.5418  27.5664  27.8222  28.5612  28.7949  28.8746  29.3643  29.4219
    29.5592  30.3283  30.8128  30.9476  31.1665  31.1913  31.2314  31.9125
    32.1458  32.1730  32.3395  32.6440  32.7938  32.8937  33.9533  33.9655
    34.0416  34.3030  34.5627  34.8302  35.4343  35.4494  35.7624  35.9213
    35.9330  36.3163  36.3220  36.9262  37.3705  37.4948  37.5430  37.7285
    37.9242  38.6798  38.9140  39.2502  39.2814  39.3532  39.6861  39.8763
    40.1938  40.3236  40.8153  41.1541  41.3346  41.4412  41.8199  41.9126
    42.0847  42.5187  42.7444  43.0466  43.0542  43.0841  43.1961  43.6406
    43.7812  43.9609  44.0573  44.1787  44.6011  44.7486  44.9011  45.1945
    45.7459  45.8874  46.1486  46.2677  46.3335  46.6269  46.7588  46.9789
    47.1667  47.5779  47.7165  47.8731  48.0155  48.3816  48.5244  49.3650
    49.3807  49.4399  49.5137  49.6305  49.7680  49.9901  50.1461  50.2674
    50.5042  51.0945  51.7849  51.7924  51.9455  52.2148  52.4692  53.2625
    53.3328  53.4946  53.6682  53.8264  53.8533  54.4067  54.4492  54.4523
    54.5715  54.8378  54.8811  55.5119  55.6062  55.6294  55.7375  56.2114

     occupation numbers 
     0.0000   0.0000   0.0000   0.0000   0.0000   0.0000   0.0000   0.0000
     0.0000   0.0000   0.0000   0.0000   0.0000   0.0000   0.0000   0.0000
     0.0000   0.0000   0.0000   0.0000   0.0000   0.0000   0.0000   0.0000
     0.0000   0.0000   0.0000   0.0000   0.0000   0.0000   0.0000   0.0000
     0.0000   0.0000   0.0000   0.0000   0.0000   0.0000   0.0000   0.0000
     0.0000   0.0000   0.0000   0.0000   0.0000   0.0000   0.0000   0.0000
     0.0000   0.0000   0.0000   0.0000   0.0000   0.0000   0.0000   0.0000
     0.0000   0.0000   0.0000   0.0000   0.0000   0.0000   0.0000   0.0000
     0.0000   0.0000   0.0000   0.0000   0.0000   0.0000   0.0000   0.0000
     0.0000   0.0000   0.0000   0.0000   0.0000   0.0000   0.0000   0.0000
     0.0000   0.0000   0.0000   0.0000   0.0000   0.0000   0.0000   0.0000
     0.0000   0.0000   0.0000   0.0000   0.0000   0.0000   0.0000   0.0000
     0.0000   0.0000   0.0000   0.0000   0.0000   0.0000   0.0000   0.0000
     0.0000   0.0000   0.0000   0.0000   0.0000   0.0000   0.0000   0.0000
     0.0000   0.0000   0.0000   0.0000   0.0000   0.0000   0.0000   0.0000
     0.0000   0.0000   0.0000   0.0000   0.0000   0.0000   0.0000   0.0000
     0.0000   0.0000   0.0000   0.0000   0.0000   0.0000   0.0000   0.0000
     0.0000   0.0000   0.0000   0.0000   0.0000   0.0000   0.0000   0.0000
     0.0000   0.0000   0.0000   0.0000   0.0000   0.0000   0.0000   0.0000
     0.0000   0.0000   0.0000   0.0000   0.0000   0.0000   0.0000   0.0000
     0.0000   0.0000   0.0000   0.0000   0.0000   0.0000   0.0000   0.0000
     0.0000   0.0000   0.0000   0.0000   0.0000   0.0000   0.0000   0.0000
     0.0000   0.0000   0.0000   0.0000   0.0000   0.0000   0.0000   0.0000
     0.0000   0.0000   0.0000   0.0000   0.0000   0.0000   0.0000   0.0000
     0.0000   0.0000   0.0000   0.0000   0.0000   0.0000   0.0000   0.0000

          k =-0.1667-0.0962 0.0000 ( 14809 PWs)   bands (ev):

   -66.6692 -40.8659 -40.7315 -40.6459 -19.7678 -18.6552 -11.3047  -9.3655
    -8.9572  -8.1468  -8.0019  -7.0280  -6.2972  -3.6005  -3.2815  -3.2075
    -2.4493   0.2842   0.3799   1.9845   2.7704   2.8177   3.9393   4.1569
     5.4135   5.9198   6.1086   6.4959   6.7276   7.1240   8.4831   9.2380
     9.2836  10.8596  10.9574  11.0863  13.2632  13.5451  13.7854  13.8284
    14.9914  15.6870  15.9389  16.2473  16.3559  16.4057  16.8254  16.9547
    17.2523  17.6452  18.0938  18.5049  18.8183  19.2792  19.3049  19.4751
    19.9773  20.1201  20.1686  20.5348  21.8839  22.0221  22.1077  22.4159
    23.1574  23.3622  23.3742  23.9080  23.9412  24.2542  24.4244  24.5621
    24.9420  25.3274  25.3408  25.4728  26.0450  26.1104  26.1523  26.1651
    26.7636  27.0174  27.2930  27.5758  27.7641  27.9009  28.0945  28.7016
    28.8015  28.8102  29.0902  29.3049  29.3838  29.6232  29.6775  30.0856
    30.4740  30.5401  31.1056  31.5059  31.5605  31.8951  31.9207  32.0347
    32.5470  33.1539  33.3582  33.4033  33.5248  33.8635  34.3297  34.8164
    34.8348  34.9634  35.0852  35.4890  35.9495  36.3662  36.7096  36.7683
    37.2018  37.2126  37.4015  37.6874  38.0749  38.7964  38.8768  39.2070
    39.3236  39.4975  40.0677  40.1622  40.9783  41.1388  41.1411  41.4815
    41.6305  41.7386  42.1209  42.1414  42.4628  43.0169  43.0857  43.2915
    43.8540  43.8799  44.0337  44.7600  44.8182  44.9007  45.3399  45.3458
    45.9194  45.9971  46.1283  46.5656  46.8330  47.0610  47.2965  47.4088
    48.0334  48.1382  48.6399  48.9175  49.2023  49.6751  50.2668  50.3102
    50.3154  50.6032  50.8158  50.8880  50.9752  51.2911  51.4887  51.5719
    52.0599  52.1493  52.5690  52.9004  53.0913  53.1615  53.2390  53.3974
    53.4318  54.2072  54.2437  54.6756  55.1430  55.2001  55.2869  55.4024
    55.5976  55.8638  56.2685  56.4289  56.6492  56.6889  56.7717  57.2469

     occupation numbers 
     1.0000   1.0000   1.0000   1.0000   1.0000   1.0000   1.0000   1.0000
[...]
     0.0000   0.0000   0.0000   0.0000   0.0000   0.0000   0.0000   0.0000
     0.0000   0.0000   0.0000   0.0000   0.0000   0.0000   0.0000   0.0000
     0.0000   0.0000   0.0000   0.0000   0.0000   0.0000   0.0000   0.0000
     0.0000   0.0000   0.0000   0.0000   0.0000   0.0000   0.0000   0.0000
     0.0000   0.0000   0.0000   0.0000   0.0000   0.0000   0.0000   0.0000
     0.0000   0.0000   0.0000   0.0000   0.0000   0.0000   0.0000   0.0000
     0.0000   0.0000   0.0000   0.0000   0.0000   0.0000   0.0000   0.0000
     0.0000   0.0000   0.0000   0.0000   0.0000   0.0000   0.0000   0.0000
     0.0000   0.0000   0.0000   0.0000   0.0000   0.0000   0.0000   0.0000
     0.0000   0.0000   0.0000   0.0000   0.0000   0.0000   0.0000   0.0000
     0.0000   0.0000   0.0000   0.0000   0.0000   0.0000   0.0000   0.0000
     0.0000   0.0000   0.0000   0.0000   0.0000   0.0000   0.0000   0.0000
     0.0000   0.0000   0.0000   0.0000   0.0000   0.0000   0.0000   0.0000
     0.0000   0.0000   0.0000   0.0000   0.0000   0.0000   0.0000   0.0000

     highest occupied, lowest unoccupied level (ev):    -5.9633   -4.1564

     Writing config to output data dir ./_ph0/MoS2.save/ :
     XML data file

     default                                                                    

     bravais-lattice index     =            4
     lattice parameter (alat)  =       5.9358  a.u.
     unit-cell volume          =    1220.5221 (a.u.)^3
     number of atoms/cell      =            3
     number of atomic types    =            2
     kinetic-energy cut-off    =      80.0000  Ry
     charge density cut-off    =     320.0000  Ry
     convergence threshold     =      1.0E-15
     beta                      =       0.7000
     number of iterations used =           10
     Exchange-correlation= PBESOL
                           (   1   4  10   8   0   0   0)


     celldm(1)=    5.93578  celldm(2)=    0.00000  celldm(3)=    6.73880
     celldm(4)=    0.00000  celldm(5)=    0.00000  celldm(6)=    0.00000

     crystal axes: (cart. coord. in units of alat)
               a(1) = (  1.0000  0.0000  0.0000 )  
               a(2) = ( -0.5000  0.8660  0.0000 )  
               a(3) = (  0.0000  0.0000  6.7388 )  

     reciprocal axes: (cart. coord. in units 2 pi/alat)
               b(1) = (  1.0000  0.5774 -0.0000 )  
               b(2) = (  0.0000  1.1547  0.0000 )  
               b(3) = (  0.0000 -0.0000  0.1484 )  


     Atoms inside the unit cell: 

     Cartesian axes

     site n.  atom      mass           positions (alat units)
        1  Mo     95.9500   tau(    1) = (    0.00000    0.57735    0.00000  )
        2  S      32.0650   tau(    2) = (    0.50000    0.28868    0.49620  )
        3  S      32.0650   tau(    3) = (    0.50000    0.28868   -0.49620  )

     Computing dynamical matrix for 
                    q = (  -0.3333333  -0.5773503   0.0000000 )

      6 Sym.Ops. (no q -> -q+G )

                                    s                        frac. trans.

      isym =  1     identity                                     

 cryst.   s( 1) = (     1          0          0      )
                  (     0          1          0      )
                  (     0          0          1      )

 cart.    s( 1) = (  1.0000000 -0.0000000  0.0000000 )
                  (  0.0000000  1.0000000  0.0000000 )
                  (  0.0000000  0.0000000  1.0000000 )


      isym =  2     inv. 180 deg rotation - cart. axis [0,0,1]   

 cryst.   s( 2) = (     1          0          0      )
                  (     0          1          0      )
                  (     0          0         -1      )

 cart.    s( 2) = (  1.0000000 -0.0000000  0.0000000 )
                  (  0.0000000  1.0000000  0.0000000 )
                  (  0.0000000  0.0000000 -1.0000000 )


      isym =  3     120 deg rotation - cryst. axis [0,0,1]       

 cryst.   s( 3) = (     0          1          0      )
                  (    -1         -1          0      )
                  (     0          0          1      )

 cart.    s( 3) = ( -0.5000000 -0.8660254  0.0000000 )
                  (  0.8660254 -0.5000000  0.0000000 )
                  (  0.0000000  0.0000000  1.0000000 )


      isym =  4     120 deg rotation - cryst. axis [0,0,-1]      

 cryst.   s( 4) = (    -1         -1          0      )
                  (     1          0          0      )
                  (     0          0          1      )

 cart.    s( 4) = ( -0.5000000  0.8660254  0.0000000 )
                  ( -0.8660254 -0.5000000  0.0000000 )
                  (  0.0000000  0.0000000  1.0000000 )


      isym =  5     inv.  60 deg rotation - cryst. axis [0,0,1]  

 cryst.   s( 5) = (    -1         -1          0      )
                  (     1          0          0      )
                  (     0          0         -1      )

 cart.    s( 5) = ( -0.5000000  0.8660254  0.0000000 )
                  ( -0.8660254 -0.5000000  0.0000000 )
                  (  0.0000000  0.0000000 -1.0000000 )


      isym =  6     inv.  60 deg rotation - cryst. axis [0,0,-1] 

 cryst.   s( 6) = (     0          1          0      )
                  (    -1         -1          0      )
                  (     0          0         -1      )

 cart.    s( 6) = ( -0.5000000 -0.8660254  0.0000000 )
                  (  0.8660254 -0.5000000  0.0000000 )
                  (  0.0000000  0.0000000 -1.0000000 )


     G cutoff =  285.5915  (   3676 G-vectors)     FFT grid: ( 36, 36,240)
     number of k points=    28
                       cart. coord. in units 2pi/alat
        k(    1) = (   0.0000000   0.0000000   0.0000000), wk =   0.0555556
        k(    2) = (  -0.3333333  -0.5773503   0.0000000), wk =   0.0000000
        k(    3) = (   0.0000000   0.1924501   0.0000000), wk =   0.1666667
        k(    4) = (  -0.3333333  -0.3849002   0.0000000), wk =   0.0000000
        k(    5) = (   0.0000000   0.3849002   0.0000000), wk =   0.1666667
        k(    6) = (  -0.3333333  -0.1924501   0.0000000), wk =   0.0000000
        k(    7) = (   0.0000000  -0.5773503   0.0000000), wk =   0.1666667
        k(    8) = (  -0.3333333  -1.1547005   0.0000000), wk =   0.0000000
        k(    9) = (   0.1666667   0.2886751   0.0000000), wk =   0.1666667
        k(   10) = (  -0.1666667  -0.2886751   0.0000000), wk =   0.0000000
        k(   11) = (   0.1666667   0.4811252   0.0000000), wk =   0.1666667
        k(   12) = (  -0.1666667  -0.0962250   0.0000000), wk =   0.0000000
        k(   13) = (   0.3333333   0.5773503   0.0000000), wk =   0.0555556
        k(   14) = (   0.0000000   0.0000000   0.0000000), wk =   0.0000000
        k(   15) = (   0.0000000  -0.1924501   0.0000000), wk =   0.1666667
        k(   16) = (  -0.3333333  -0.7698004   0.0000000), wk =   0.0000000
        k(   17) = (   0.0000000  -0.3849002   0.0000000), wk =   0.1666667
        k(   18) = (  -0.3333333  -0.9622504   0.0000000), wk =   0.0000000
        k(   19) = (  -0.1666667   0.2886751   0.0000000), wk =   0.1666667
        k(   20) = (  -0.5000000  -0.2886751   0.0000000), wk =   0.0000000
        k(   21) = (  -0.1666667   0.4811252   0.0000000), wk =   0.1666667
        k(   22) = (  -0.5000000  -0.0962250   0.0000000), wk =   0.0000000
        k(   23) = (  -0.1666667  -0.4811252   0.0000000), wk =   0.1666667
        k(   24) = (  -0.5000000  -1.0584755   0.0000000), wk =   0.0000000
        k(   25) = (   0.1666667  -0.4811252   0.0000000), wk =   0.1666667
        k(   26) = (  -0.1666667  -1.0584755   0.0000000), wk =   0.0000000
        k(   27) = (  -0.3333333   0.5773503   0.0000000), wk =   0.0555556
        k(   28) = (  -0.6666667   0.0000000   0.0000000), wk =   0.0000000

                       cryst. coord.
        k(    1) = (   0.0000000   0.0000000   0.0000000), wk =   0.0555556
        k(    2) = (  -0.3333333  -0.3333333   0.0000000), wk =   0.0000000
        k(    3) = (   0.0000000   0.1666667   0.0000000), wk =   0.1666667
        k(    4) = (  -0.3333333  -0.1666667   0.0000000), wk =   0.0000000
        k(    5) = (   0.0000000   0.3333333   0.0000000), wk =   0.1666667
        k(    6) = (  -0.3333333  -0.0000000   0.0000000), wk =   0.0000000
        k(    7) = (   0.0000000  -0.5000000   0.0000000), wk =   0.1666667
        k(    8) = (  -0.3333333  -0.8333333   0.0000000), wk =   0.0000000
        k(    9) = (   0.1666667   0.1666667   0.0000000), wk =   0.1666667
        k(   10) = (  -0.1666667  -0.1666667   0.0000000), wk =   0.0000000
        k(   11) = (   0.1666667   0.3333333   0.0000000), wk =   0.1666667
        k(   12) = (  -0.1666667  -0.0000000   0.0000000), wk =   0.0000000
        k(   13) = (   0.3333333   0.3333333   0.0000000), wk =   0.0555556
        k(   14) = (   0.0000000  -0.0000000   0.0000000), wk =   0.0000000
        k(   15) = (   0.0000000  -0.1666667   0.0000000), wk =   0.1666667
        k(   16) = (  -0.3333333  -0.5000000   0.0000000), wk =   0.0000000
        k(   17) = (   0.0000000  -0.3333333   0.0000000), wk =   0.1666667
        k(   18) = (  -0.3333333  -0.6666667   0.0000000), wk =   0.0000000
        k(   19) = (  -0.1666667   0.3333333   0.0000000), wk =   0.1666667
        k(   20) = (  -0.5000000  -0.0000000   0.0000000), wk =   0.0000000
        k(   21) = (  -0.1666667   0.5000000   0.0000000), wk =   0.1666667
        k(   22) = (  -0.5000000   0.1666667   0.0000000), wk =   0.0000000
        k(   23) = (  -0.1666667  -0.3333333   0.0000000), wk =   0.1666667
        k(   24) = (  -0.5000000  -0.6666667   0.0000000), wk =   0.0000000
        k(   25) = (   0.1666667  -0.5000000   0.0000000), wk =   0.1666667
        k(   26) = (  -0.1666667  -0.8333333   0.0000000), wk =   0.0000000
        k(   27) = (  -0.3333333   0.6666667   0.0000000), wk =   0.0555556
        k(   28) = (  -0.6666667   0.3333333   0.0000000), wk =   0.0000000

     PseudoPot. # 1 for Mo read from file:
     ./pseudo/Mo.pbesol.dojo.upf
     MD5 check sum: c40353276b9086539cda6b9e5a66907b
     Pseudo is Norm-conserving + core correction, Zval = 14.0
     Generated using ONCVPSP code by D. R. Hamann
     Using radial grid of 1640 points,  6 beta functions with: 
                l(1) =   0
                l(2) =   0
                l(3) =   1
                l(4) =   1
                l(5) =   2
                l(6) =   2

     PseudoPot. # 2 for S  read from file:
     ./pseudo/S.pbesol.dojo.upf
     MD5 check sum: 501737efeeef1fb1c631cda521d4e019
     Pseudo is Norm-conserving + core correction, Zval =  6.0
     Generated using ONCVPSP code by D. R. Hamann
     Using radial grid of 1146 points,  6 beta functions with: 
                l(1) =   0
                l(2) =   0
                l(3) =   1
                l(4) =   1
                l(5) =   2
                l(6) =   2

     point group C_3h (-6)  
     there are  6 classes
     the character table:

       E     C3    C3^2  s_h   S3    S3^5 
A'     1.00  1.00  1.00  1.00  1.00  1.00
E'     1.00 -0.50 -0.50  1.00 -0.50 -0.50
E'*    1.00 -0.50 -0.50  1.00 -0.50 -0.50
A''    1.00  1.00  1.00 -1.00 -1.00 -1.00
E''    1.00 -0.50 -0.50 -1.00  0.50  0.50
E''*   1.00 -0.50 -0.50 -1.00  0.50  0.50
     imaginary part
A'     0.00  0.00  0.00  0.00  0.00  0.00
E'     0.00  0.87 -0.87  0.00  0.87 -0.87
E'*    0.00 -0.87  0.87  0.00 -0.87  0.87
A''    0.00  0.00  0.00  0.00  0.00  0.00
E''    0.00  0.87 -0.87  0.00 -0.87  0.87
E''*   0.00 -0.87  0.87  0.00  0.87 -0.87

     the symmetry operations in each class and the name of the first element:

     E        1
          identity                                               
     C3       3
          120 deg rotation - cryst. axis [0,0,1]                 
     C3^2     4
          inv.  60 deg rotation - cryst. axis [0,0,1]            
     s_h      2
          inv. 180 deg rotation - cart. axis [0,0,1]             
     S3       6
          inv. 180 deg rotation - cart. axis [1,0,0]             
     S3^5     5
          180 deg rotation - cart. axis [0,1,0]                  


     Atomic displacements:
     There are    9 irreducible representations

     Representation     1      1 modes -  To be done
     Irreps are as follows:

                     mode #   1
                     (   0.00000  -0.00000   ) 
                     (   0.00000  -0.00000   ) 
                     (   0.00000  -0.00000   ) 
                     (  -0.50000   0.00000   ) 
                     (  -0.00000   0.50000   ) 
                     (  -0.00000  -0.00000   ) 
                     (  -0.50000  -0.00000   ) 
                     (  -0.00000   0.50000   ) 
                     (   0.00000  -0.00000   ) 

     Representation     2      1 modes -  To be done
     Irreps are as follows:

                     mode #   2
                     (  -0.70711   0.00000   ) 
                     (  -0.00000  -0.70711   ) 
                     (  -0.00000  -0.00000   ) 
                     (  -0.00000  -0.00000   ) 
                     (  -0.00000  -0.00000   ) 
                     (  -0.00000  -0.00000   ) 
                     (  -0.00000  -0.00000   ) 
                     (  -0.00000  -0.00000   ) 
                     (  -0.00000  -0.00000   ) 

     Representation     3      1 modes -  To be done
     Irreps are as follows:

                     mode #   3
                     (  -0.00000   0.00000   ) 
                     (  -0.00000   0.00000   ) 
                     (  -0.00000   0.00000   ) 
                     (  -0.50000   0.00000   ) 
                     (  -0.00000  -0.50000   ) 
                     (  -0.00000   0.00000   ) 
                     (  -0.50000   0.00000   ) 
                     (  -0.00000  -0.50000   ) 
                     (   0.00000   0.00000   ) 

     Representation     4      1 modes -  To be done
     Irreps are as follows:

                     mode #   4
                     (  -0.00000   0.00000   ) 
                     (  -0.00000   0.00000   ) 
                     (  -0.00000   0.00000   ) 
                     (   0.00000  -0.00000   ) 
                     (   0.00000   0.00000   ) 
                     (  -0.70711  -0.00000   ) 
                     (  -0.00000   0.00000   ) 
                     (  -0.00000  -0.00000   ) 
                     (   0.70711   0.00000   ) 

     Representation     5      1 modes -  To be done
     Irreps are as follows:

                     mode #   5
                     (  -0.70711   0.00000   ) 
                     (   0.00000   0.70711   ) 
                     (  -0.00000  -0.00000   ) 
                     (  -0.00000  -0.00000   ) 
                     (  -0.00000  -0.00000   ) 
                     (  -0.00000  -0.00000   ) 
                     (  -0.00000  -0.00000   ) 
                     (  -0.00000  -0.00000   ) 
                     (  -0.00000  -0.00000   ) 

     Representation     6      1 modes -  To be done
     Irreps are as follows:

                     mode #   6
                     (  -0.00000  -0.00000   ) 
                     (  -0.00000  -0.00000   ) 
                     (  -0.00000  -0.00000   ) 
                     (  -0.50000  -0.00000   ) 
                     (   0.00000   0.50000   ) 
                     (  -0.00000   0.00000   ) 
                     (   0.50000   0.00000   ) 
                     (   0.00000  -0.50000   ) 
                     (  -0.00000   0.00000   ) 

     Representation     7      1 modes -  To be done
     Irreps are as follows:

                     mode #   7
                     (  -0.00000  -0.00000   ) 
                     (  -0.00000  -0.00000   ) 
                     (  -1.00000  -0.00000   ) 
                     (  -0.00000  -0.00000   ) 
                     (  -0.00000  -0.00000   ) 
                     (  -0.00000  -0.00000   ) 
                     (  -0.00000  -0.00000   ) 
                     (  -0.00000  -0.00000   ) 
                     (  -0.00000  -0.00000   ) 

     Representation     8      1 modes -  To be done
     Irreps are as follows:

                     mode #   8
                     (  -0.00000  -0.00000   ) 
                     (  -0.00000  -0.00000   ) 
                     (  -0.00000  -0.00000   ) 
                     (  -0.50000   0.00000   ) 
                     (  -0.00000  -0.50000   ) 
                     (  -0.00000  -0.00000   ) 
                     (   0.50000   0.00000   ) 
                     (  -0.00000   0.50000   ) 
                     (   0.00000  -0.00000   ) 

     Representation     9      1 modes -  To be done
     Irreps are as follows:

                     mode #   9
                     (  -0.00000  -0.00000   ) 
                     (  -0.00000  -0.00000   ) 
                     (  -0.00000  -0.00000   ) 
                     (   0.00000  -0.00000   ) 
                     (   0.00000   0.00000   ) 
                     (  -0.70711  -0.00000   ) 
                     (  -0.00000   0.00000   ) 
                     (  -0.00000  -0.00000   ) 
                     (  -0.70711  -0.00000   ) 


     PHONON       :  51m48.40s CPU  52m47.19s WALL

     Reading dVscf from file dvscf7_

     Diagonalizing the dynamical matrix

     q = (   -0.333333333  -0.577350269   0.000000000 ) 

 **************************************************************************
     freq (    1) =       5.391954 [THz] =     179.856225 [cm-1]
     freq (    2) =       5.582469 [THz] =     186.211130 [cm-1]
     freq (    3) =       7.045506 [THz] =     235.012786 [cm-1]
     freq (    4) =       9.703533 [THz] =     323.675013 [cm-1]
     freq (    5) =      10.084994 [THz] =     336.399188 [cm-1]
     freq (    6) =      10.089812 [THz] =     336.559894 [cm-1]
     freq (    7) =      11.301627 [THz] =     376.981698 [cm-1]
     freq (    8) =      11.504871 [THz] =     383.761186 [cm-1]
     freq (    9) =      11.862927 [THz] =     395.704659 [cm-1]
 **************************************************************************
     electron-phonon interaction (to be used in YAMBO)  ...


     PHONON       :  52m28.47s CPU  53m30.86s WALL

     INITIALIZATION: 
     phq_setup    :      0.12s CPU      0.19s WALL (       5 calls)
     phq_init     :      1.42s CPU      1.88s WALL (       5 calls)

     phq_init     :      1.42s CPU      1.88s WALL (       5 calls)
     set_drhoc    :      0.00s CPU      0.00s WALL (       5 calls)
     init_vloc    :      0.05s CPU      0.05s WALL (       6 calls)
     init_us_1    :      0.00s CPU      0.00s WALL (       6 calls)
     init_us_2    :      0.67s CPU      0.74s WALL (    1440 calls)

     dvqpsi_us    :     98.26s CPU    101.73s WALL (    1080 calls)
                                        0.00s GPU  (    1080 calls)
     dvqpsi_us_on :     18.51s CPU     18.60s WALL (    1080 calls)

     add_vuspsi   :      5.63s CPU      5.69s WALL (    5452 calls)


      Electron-phonon coupling
     elphon       :    330.94s CPU    359.56s WALL (       5 calls)
     elphel       :    330.89s CPU    359.07s WALL (      45 calls)

      General routines
     calbec       :      9.26s CPU      9.63s WALL (    5932 calls)
     fft          :      0.63s CPU      0.69s WALL (      81 calls)
     ffts         :      0.67s CPU      0.98s WALL (    1080 calls)
     fftw         :    375.60s CPU    386.44s WALL ( 2186018 calls)
     davcio       :      1.68s CPU      6.24s WALL (    2692 calls)

      Additional routines
     h_psi_bgrp   :    265.40s CPU    272.33s WALL (    5452 calls)
     h_psi        :    265.38s CPU    272.31s WALL (    5452 calls)
     h_psi:pot    :    262.42s CPU    269.19s WALL (    5452 calls)
     h_psi:calbec :      8.40s CPU      8.62s WALL (    5452 calls)


     PHONON       :  52m28.47s CPU  53m30.86s WALL


   This run was terminated on:  19:12: 7   9Feb2026            

=------------------------------------------------------------------------------=
   JOB DONE.
=------------------------------------------------------------------------------=
