
     Program HP v.7.5 starts on  5Mar2026 at 16: 6:17 
        Git branch: HEAD
        Last git commit: 770a0b2d12928a67048e2f3da8d10d057e52179e
        Last git commit date: Tue Aug 19 09:57:12 2025 +0000
        Last git commit subject: Merge branch 'QE-7.5-RC' into 'master'

     This program is part of the open-source Quantum ESPRESSO suite
     for quantum simulation of materials; please cite
         "P. Giannozzi et al., J. Phys.:Condens. Matter 21 395502 (2009);
         "P. Giannozzi et al., J. Phys.:Condens. Matter 29 465901 (2017);
         "P. Giannozzi et al., J. Chem. Phys. 152 154105 (2020);
          URL http://www.quantum-espresso.org", 
     in publications or presentations arising from this work. More details at
     http://www.quantum-espresso.org/quote

     Parallel version (MPI), running on   256 processors

     MPI processes distributed on     8 nodes
     R & G space division:  proc/nbgrp/npool/nimage =     256
     242759 MiB available memory on the printing compute node when the environment starts


     =---------------------------------------------------------------------------=

           Calculation of Hubbard parameters using the HP code based on DFPT      

               Please cite the following papers when using this program:          

                 - HP code : Comput. Phys. Commun. 279, 108455 (2022).            

                                                                                  

           For a nonrelativistic, collinear calculation:                          

                 - Theory  : I. Timrov et al, Phys. Rev. B 98,  085127 (2018) and 

                             I. Timrov et al, Phys. Rev. B 103, 045141 (2021).    

                                                                                  

           For a fully-relativistic, and/or noncollinear calculation:             

                 - Theory  : L. Binci et al., Phys. Rev. B 108, 115157 (2023) and 

                             I. Timrov et al, Phys. Rev. B 98,  085127 (2018) 

     =-----------------------------------------------------------------------------=

     Reading xml data from directory:

     ./tmp/NiI2.save/

     IMPORTANT: XC functional enforced from input :
     Exchange-correlation= PBESOL
                           (   1   4  10   8   0   0   0)
     Any further DFT definition will be discarded
     Please, verify this is what you really want


     Parallelization info
     --------------------
     sticks:   dense  smooth     PW     G-vecs:    dense   smooth      PW
     Min          12      12      3                  230      230      36
     Max          13      13      4                  233      233      41
     Sum        3099    3099    945                59333    59333    9983

     Using Pencil Decomposition


     Check: negative core charge=   -0.000024
     Reading collected, re-writing distributed wavefunctions


     bravais-lattice index     =             5
     lattice parameter (alat)  =       26.8360 (a.u.)
     unit-cell volume          =     1281.9023 (a.u.)^3
     number of atoms/cell      =             6
     number of atomic types    =             3
     kinetic-energy cut-off    =         49.00 (Ry)
     charge density cut-off    =        196.00 (Ry)
     conv. thresh. for NSCF    =       1.0E-11
     conv. thresh. for chi     =       1.0E-05
     Input Hubbard parameters (in eV):
       U ( 1)                     =   5.48850E+00
       U ( 2)                     =   6.48850E+00

     celldm(1) = 26.83600  celldm(2) =  0.00000  celldm(3) =  0.00000
     celldm(4) =  0.96120  celldm(5) =  0.00000  celldm(6) =  0.00000

     crystal axes: (cart. coord. in units of alat)
               a(1) = (  0.1393 -0.0804  0.9870 )  
               a(2) = (  0.0000  0.1608  0.9870 )  
               a(3) = ( -0.1393 -0.0804  0.9870 )  

     reciprocal axes: (cart. coord. in units 2 pi/alat)
               b(1) = (  3.5898 -2.0726  0.3377 )  
               b(2) = (  0.0000  4.1451  0.3377 )  
               b(3) = ( -3.5898 -2.0726  0.3377 )  

     Atoms inside the unit cell (Cartesian axes):
     site n.  atom      mass           positions (alat units)
        1   Ni1       58.6934   tau(  1) = (  0.00000  0.00000  0.00000  )
        2   Ni2       58.6934   tau(  2) = (  0.13928  0.08042  0.49349  )
        3   I        126.9045   tau(  3) = ( -0.00000 -0.00000  0.38561  )
        4   I        126.9045   tau(  4) = (  0.13928  0.08042  0.87910  )
        5   I        126.9045   tau(  5) = (  0.13928  0.08042  0.10788  )
        6   I        126.9045   tau(  6) = (  0.13928 -0.08042  0.60138  )

     List of  2 atoms which will be perturbed (one at a time):

        1   Ni1       58.6934   tau( 1) = (  0.00000  0.00000  0.00000  )
        2   Ni2       58.6934   tau( 2) = (  0.13928  0.08042  0.49349  )

     =====================================================================

                          PERTURBED ATOM #    1

     site n.  atom      mass           positions (alat units)
        1   Ni1       58.6934   tau( 1) = (  0.00000  0.00000  0.00000  )

     =====================================================================

     The perturbed atom has a type which is unique!


     The grid of q-points ( 3, 3, 3)  (  6 q-points ) :
       N       xq(1)         xq(2)         xq(3)       wq
       1   0.000000000   0.000000000   0.000000000   0.037037037
       2  -1.196596931  -0.690855560   0.112576642   0.222222222
       3  -1.196596931   0.690855560   0.225153283   0.222222222
       4   1.196596931   2.072566681   0.000000000   0.222222222
       5   0.000000000  -0.000000000   0.337729925   0.074074074
       6   2.393193862   1.381711120   0.112576642   0.222222222


     =-------------------------------------------------------------=

     Calculation for q #   1 = (   0.0000000   0.0000000   0.0000000 )

     =-------------------------------------------------------------=

                   WRITING LINEAR-RESPONSE SUMMARY:




     Number of symmetries in the small group of q, nsymq = 12
      + the symmetry q -> -q+G 

     G cutoff = 3575.4600  (    233 G-vectors)     FFT grid: (120,120,120)

     Number of k (and k+q if q/=0) points =    26

                       cart. coord. (in units 2pi/alat)
        k (    1) = (   0.0000000   0.0000000   0.0000000), wk = 0.0156250
        k (    2) = (  -0.8974477  -0.5181417   0.0844325), wk = 0.0937500
        k (    3) = (   1.7948954   1.0362833  -0.1688650), wk = 0.0468750
        k (    4) = (  -0.8974477   0.5181417   0.1688650), wk = 0.0937500
        k (    5) = (   1.7948954   2.0725667  -0.0844325), wk = 0.1875000
        k (    6) = (   0.8974477   1.5544250   0.0000000), wk = 0.0937500
        k (    7) = (   1.7948954  -1.0362833  -0.3377299), wk = 0.0468750
        k (    8) = (   0.0000000   0.0000000   0.2532974), wk = 0.0312500
        k (    9) = (   2.6923431   1.5544250   0.0000000), wk = 0.0937500
        k (   10) = (   1.7948954   1.0362833   0.0844325), wk = 0.0937500
        k (   11) = (   2.6923431  -1.5544250  -0.2532974), wk = 0.0937500
        k (   12) = (   1.7948954  -2.0725667  -0.1688650), wk = 0.0937500
        k (   13) = (   0.0000000   0.0000000  -0.5065949), wk = 0.0156250
        k (   14) = (   0.0000000   0.0000000   0.0000000), wk = 0.0156250
        k (   15) = (  -0.8974477  -0.5181417   0.0844325), wk = 0.0937500
        k (   16) = (   1.7948954   1.0362833  -0.1688650), wk = 0.0468750
        k (   17) = (  -0.8974477   0.5181417   0.1688650), wk = 0.0937500
        k (   18) = (   1.7948954   2.0725667  -0.0844325), wk = 0.1875000
        k (   19) = (   0.8974477   1.5544250   0.0000000), wk = 0.0937500
        k (   20) = (   1.7948954  -1.0362833  -0.3377299), wk = 0.0468750
        k (   21) = (   0.0000000   0.0000000   0.2532974), wk = 0.0312500
        k (   22) = (   2.6923431   1.5544250   0.0000000), wk = 0.0937500
        k (   23) = (   1.7948954   1.0362833   0.0844325), wk = 0.0937500
        k (   24) = (   2.6923431  -1.5544250  -0.2532974), wk = 0.0937500
        k (   25) = (   1.7948954  -2.0725667  -0.1688650), wk = 0.0937500
        k (   26) = (   0.0000000   0.0000000  -0.5065949), wk = 0.0156250

                       cryst. coord.
        k (    1) = (   0.0000000   0.0000000   0.0000000), wk = 0.0156250
        k (    2) = (   0.0000000  -0.0000000   0.2500000), wk = 0.0937500
        k (    3) = (  -0.0000000  -0.0000000  -0.5000000), wk = 0.0468750
        k (    4) = (   0.0000000   0.2500000   0.2500000), wk = 0.0937500
        k (    5) = (  -0.0000000   0.2500000  -0.5000000), wk = 0.1875000
        k (    6) = (  -0.0000000   0.2500000  -0.2500000), wk = 0.0937500
        k (    7) = (  -0.0000000  -0.5000000  -0.5000000), wk = 0.0468750
        k (    8) = (   0.2500000   0.2500000   0.2500000), wk = 0.0312500
        k (    9) = (   0.2500000   0.2500000  -0.5000000), wk = 0.0937500
        k (   10) = (   0.2500000   0.2500000  -0.2500000), wk = 0.0937500
        k (   11) = (   0.2500000  -0.5000000  -0.5000000), wk = 0.0937500
        k (   12) = (   0.2500000  -0.5000000  -0.2500000), wk = 0.0937500
        k (   13) = (  -0.5000000  -0.5000000  -0.5000000), wk = 0.0156250
        k (   14) = (   0.0000000   0.0000000   0.0000000), wk = 0.0156250
        k (   15) = (   0.0000000  -0.0000000   0.2500000), wk = 0.0937500
        k (   16) = (  -0.0000000  -0.0000000  -0.5000000), wk = 0.0468750
        k (   17) = (   0.0000000   0.2500000   0.2500000), wk = 0.0937500
        k (   18) = (  -0.0000000   0.2500000  -0.5000000), wk = 0.1875000
        k (   19) = (  -0.0000000   0.2500000  -0.2500000), wk = 0.0937500
        k (   20) = (  -0.0000000  -0.5000000  -0.5000000), wk = 0.0468750
        k (   21) = (   0.2500000   0.2500000   0.2500000), wk = 0.0312500
        k (   22) = (   0.2500000   0.2500000  -0.5000000), wk = 0.0937500
        k (   23) = (   0.2500000   0.2500000  -0.2500000), wk = 0.0937500
        k (   24) = (   0.2500000  -0.5000000  -0.5000000), wk = 0.0937500
        k (   25) = (   0.2500000  -0.5000000  -0.2500000), wk = 0.0937500
        k (   26) = (  -0.5000000  -0.5000000  -0.5000000), wk = 0.0156250

     Atomic wfc used for the projector on the Hubbard manifold are orthogonalized

     Total time spent up to now is:
     HP           :     22.08s CPU     29.77s WALL

      =--------------------------------------------=
                 SOLVE THE LINEAR SYSTEM
      =--------------------------------------------=

      atom #  1   q point #   1   iter #   1
      chi:   1  -0.2771619566
      chi:   2   0.0005518851
      Average number of iter. to solve lin. system:   44.6
      Total CPU time :    57.9 s

      atom #  1   q point #   1   iter #   2
      chi:   1   0.0662397342   residue:    0.3434016908
      chi:   2  -0.0051111692   residue:    0.0056630542
      Average number of iter. to solve lin. system:   22.1
      Total CPU time :    74.0 s

      atom #  1   q point #   1   iter #   3
      chi:   1  -0.0911315610   residue:    0.1573712952
      chi:   2   0.0015944224   residue:    0.0067055915
      Average number of iter. to solve lin. system:   20.8
      Total CPU time :    89.5 s

      atom #  1   q point #   1   iter #   4
      chi:   1  -0.1082777560   residue:    0.0171461951
      chi:   2  -0.0025654880   residue:    0.0041599104
      Average number of iter. to solve lin. system:   22.8
      Total CPU time :   106.1 s

      atom #  1   q point #   1   iter #   5
      chi:   1  -0.1094931918   residue:    0.0012154358
      chi:   2   0.0003537289   residue:    0.0029192170
      Average number of iter. to solve lin. system:   24.0
      Total CPU time :   123.2 s

      atom #  1   q point #   1   iter #   6
      chi:   1  -0.1093353529   residue:    0.0001578389
      chi:   2  -0.0004675710   residue:    0.0008213000
      Average number of iter. to solve lin. system:   23.4
      Total CPU time :   140.0 s

      atom #  1   q point #   1   iter #   7
      chi:   1  -0.1094440003   residue:    0.0001086474
      chi:   2  -0.0003152327   residue:    0.0001523383
      Average number of iter. to solve lin. system:   24.1
      Total CPU time :   157.3 s

      atom #  1   q point #   1   iter #   8
      chi:   1  -0.1098787433   residue:    0.0004347431
      chi:   2  -0.0001921695   residue:    0.0001230633
      Average number of iter. to solve lin. system:   24.8
      Total CPU time :   174.9 s

      atom #  1   q point #   1   iter #   9
      chi:   1  -0.1099532847   residue:    0.0000745414
      chi:   2  -0.0002120213   residue:    0.0000198518
      Average number of iter. to solve lin. system:   24.7
      Total CPU time :   192.5 s

      atom #  1   q point #   1   iter #  10
      chi:   1  -0.1099685907   residue:    0.0000153060
      chi:   2  -0.0002164531   residue:    0.0000044318
      Average number of iter. to solve lin. system:   24.9
      Total CPU time :   210.9 s

      atom #  1   q point #   1   iter #  11
      chi:   1  -0.1099631389   residue:    0.0000054518
      chi:   2  -0.0002181805   residue:    0.0000017274
      Average number of iter. to solve lin. system:   23.5
      Total CPU time :   227.7 s
      
      =--------------------------------------------=
             CONVERGENCE HAS BEEN REACHED
      =--------------------------------------------=


     =-------------------------------------------------------------=

     Calculation for q #   2 = (  -1.1965969  -0.6908556   0.1125766 )

     =-------------------------------------------------------------=

     Performing NSCF calculation at all points k and k+q...
     Subspace diagonalization in iterative solution of the eigenvalue problem:
     a serial algorithm will be used


     Parallelization info
     --------------------
     sticks:   dense  smooth     PW     G-vecs:    dense   smooth      PW
     Min          12      12      4                  230      230      41
     Max          13      13      5                  233      233      46
     Sum        3099    3099   1025                59333    59333   11371

     Using Pencil Decomposition



     bravais-lattice index     =            5
     lattice parameter (alat)  =      26.8360  a.u.
     unit-cell volume          =    1281.9023 (a.u.)^3
     number of atoms/cell      =            6
     number of atomic types    =            3
     number of electrons       =        64.00 (up:  32.00, down:  32.00)
     number of Kohn-Sham states=           32
     kinetic-energy cutoff     =      49.0000  Ry
     charge density cutoff     =     196.0000  Ry
     Exchange-correlation= PBESOL
                           (   1   4  10   8   0   0   0)
     Hubbard projectors: ortho-atomic
     Hubbard parameters of DFT+U (Dudarev formulation) in eV:
     U(Ni1-3d) =  5.4885
     U(Ni2-3d) =  6.4885

     Internal variables: lda_plus_u =T, lda_plus_u_kind = 0

     Internal variables: orbital_resolved =F, hub_pot_fix =F, apply_U = F

     celldm(1)=  26.836001  celldm(2)=   0.000000  celldm(3)=   0.000000
     celldm(4)=   0.961200  celldm(5)=   0.000000  celldm(6)=   0.000000

     crystal axes: (cart. coord. in units of alat)
               a(1) = (   0.139284  -0.080416   0.986982 )  
               a(2) = (   0.000000   0.160831   0.986982 )  
               a(3) = (  -0.139284  -0.080416   0.986982 )  

     reciprocal axes: (cart. coord. in units 2 pi/alat)
               b(1) = (  3.589791 -2.072567  0.337730 )  
               b(2) = (  0.000000  4.145133  0.337730 )  
               b(3) = ( -3.589791 -2.072567  0.337730 )  


     PseudoPot. # 1 for Ni read from file:
     ./Pseudos/Ni_pbesol.upf
     MD5 check sum: 3ec56ad6bf78c9cc1bbec815420e1c7d
     Pseudo is Norm-conserving + core correction, Zval = 18.0
     Generated using ONCVPSP code by D. R. Hamann
     Using radial grid of 1356 points,  6 beta functions with: 
                l(1) =   0
                l(2) =   0
                l(3) =   1
                l(4) =   1
                l(5) =   2
                l(6) =   2

     PseudoPot. # 2 for Ni read from file:
     ./Pseudos/Ni_pbesol.upf
     MD5 check sum: 3ec56ad6bf78c9cc1bbec815420e1c7d
     Pseudo is Norm-conserving + core correction, Zval = 18.0
     Generated using ONCVPSP code by D. R. Hamann
     Using radial grid of 1356 points,  6 beta functions with: 
                l(1) =   0
                l(2) =   0
                l(3) =   1
                l(4) =   1
                l(5) =   2
                l(6) =   2

     PseudoPot. # 3 for I  read from file:
     ./Pseudos/I_pbesol.upf
     MD5 check sum: 80ed5ceb2eb9c553cfb6760a299d9c5b
     Pseudo is Norm-conserving + core correction, Zval =  7.0
     Generated using ONCVPSP code by D. R. Hamann
     Using radial grid of 1182 points,  6 beta functions with: 
                l(1) =   0
                l(2) =   0
                l(3) =   1
                l(4) =   1
                l(5) =   2
                l(6) =   2

     atomic species   valence    mass     pseudopotential
     Ni1              18.00    58.69340     Ni( 1.00)
     Ni2              18.00    58.69340     Ni( 1.00)
     I                 7.00   126.90447     I ( 1.00)

     Starting magnetic structure 
     atomic species   magnetization
     Ni1             0.600
     Ni2            -0.600
     I               0.000

     12 Sym. Ops., with inversion, found



   Cartesian axes

     site n.     atom                  positions (alat units)
         1        Ni1    tau(   1) = (   0.0000000   0.0000000   0.0000000  )
         2        Ni2    tau(   2) = (   0.1392839   0.0804156   0.4934910  )
         3        I      tau(   3) = (  -0.0000000  -0.0000000   0.3856062  )
         4        I      tau(   4) = (   0.1392839   0.0804156   0.8790972  )
         5        I      tau(   5) = (   0.1392839   0.0804156   0.1078847  )
         6        I      tau(   6) = (   0.1392839  -0.0804156   0.6013757  )

     number of k points=    80
                       cart. coord. in units 2pi/alat
        k(    1) = (   0.0000000   0.0000000   0.0000000), wk =   0.0156250
        k(    2) = (  -1.1965969  -0.6908556   0.1125766), wk =   0.0000000
        k(    3) = (  -0.8974477  -0.5181417   0.0844325), wk =   0.0156250
        k(    4) = (  -2.0940446  -1.2089972   0.1970091), wk =   0.0000000
        k(    5) = (   1.7948954   1.0362833  -0.1688650), wk =   0.0156250
        k(    6) = (   0.5982985   0.3454278  -0.0562883), wk =   0.0000000
        k(    7) = (  -0.8974477   0.5181417   0.1688650), wk =   0.0312500
        k(    8) = (  -2.0940446  -0.1727139   0.2814416), wk =   0.0000000
        k(    9) = (   1.7948954   2.0725667  -0.0844325), wk =   0.0312500
        k(   10) = (   0.5982985   1.3817111   0.0281442), wk =   0.0000000
        k(   11) = (   0.8974477   1.5544250   0.0000000), wk =   0.0312500
        k(   12) = (  -0.2991492   0.8635695   0.1125766), wk =   0.0000000
        k(   13) = (   1.7948954  -1.0362833  -0.3377299), wk =   0.0312500
        k(   14) = (   0.5982985  -1.7271389  -0.2251533), wk =   0.0000000
        k(   15) = (   0.0000000   0.0000000   0.2532974), wk =   0.0156250
        k(   16) = (  -1.1965969  -0.6908556   0.3658741), wk =   0.0000000
        k(   17) = (   2.6923431   1.5544250   0.0000000), wk =   0.0156250
        k(   18) = (   1.4957462   0.8635695   0.1125766), wk =   0.0000000
        k(   19) = (   1.7948954   1.0362833   0.0844325), wk =   0.0156250
        k(   20) = (   0.5982985   0.3454278   0.1970091), wk =   0.0000000
        k(   21) = (   2.6923431  -1.5544250  -0.2532974), wk =   0.0312500
        k(   22) = (   1.4957462  -2.2452806  -0.1407208), wk =   0.0000000
        k(   23) = (   1.7948954  -2.0725667  -0.1688650), wk =   0.0312500
        k(   24) = (   0.5982985  -2.7634222  -0.0562883), wk =   0.0000000
        k(   25) = (   0.0000000   0.0000000  -0.5065949), wk =   0.0156250
        k(   26) = (  -1.1965969  -0.6908556  -0.3940182), wk =   0.0000000
        k(   27) = (   0.8974477  -0.5181417   0.0844325), wk =   0.0312500
        k(   28) = (  -0.2991492  -1.2089972   0.1970091), wk =   0.0000000
        k(   29) = (   0.8974477   0.5181417  -0.0844325), wk =   0.0156250
        k(   30) = (  -0.2991492  -0.1727139   0.0281442), wk =   0.0000000
        k(   31) = (  -0.0000000  -1.0362833  -0.0844325), wk =   0.0312500
        k(   32) = (  -1.1965969  -1.7271389   0.0281442), wk =   0.0000000
        k(   33) = (  -1.7948954   1.0362833  -0.1688650), wk =   0.0312500
        k(   34) = (  -2.9914923   0.3454278  -0.0562883), wk =   0.0000000
        k(   35) = (   0.8974477   0.5181417   0.1688650), wk =   0.0156250
        k(   36) = (  -0.2991492  -0.1727139   0.2814416), wk =   0.0000000
        k(   37) = (  -0.0000000   1.0362833  -0.1688650), wk =   0.0312500
        k(   38) = (  -1.1965969   0.3454278  -0.0562883), wk =   0.0000000
        k(   39) = (  -0.8974477  -0.5181417  -0.1688650), wk =   0.0156250
        k(   40) = (  -2.0940446  -1.2089972  -0.0562883), wk =   0.0000000
        k(   41) = (  -2.6923431   0.5181417  -0.0844325), wk =   0.0312500
        k(   42) = (  -3.8889400  -0.1727139   0.0281442), wk =   0.0000000
        k(   43) = (   0.8974477  -2.5907084  -0.0844325), wk =   0.0312500
        k(   44) = (  -0.2991492  -3.2815639   0.0281442), wk =   0.0000000
        k(   45) = (  -2.6923431  -0.5181417   0.0844325), wk =   0.0312500
        k(   46) = (  -3.8889400  -1.2089972   0.1970091), wk =   0.0000000
        k(   47) = (   0.8974477   2.5907084   0.0844325), wk =   0.0312500
        k(   48) = (  -0.2991492   1.8998528   0.1970091), wk =   0.0000000
        k(   49) = (  -0.8974477   2.5907084   0.0844325), wk =   0.0312500
        k(   50) = (  -2.0940446   1.8998528   0.1970091), wk =   0.0000000
        k(   51) = (  -1.7948954  -0.0000000   0.0000000), wk =   0.0312500
        k(   52) = (  -2.9914923  -0.6908556   0.1125766), wk =   0.0000000
        k(   53) = (   0.8974477  -1.5544250  -0.0000000), wk =   0.0312500
        k(   54) = (  -0.2991492  -2.2452806   0.1125766), wk =   0.0000000
        k(   55) = (  -1.7948954  -1.0362833  -0.3377299), wk =   0.0156250
        k(   56) = (  -2.9914923  -1.7271389  -0.2251533), wk =   0.0000000
        k(   57) = (   0.0000000   0.0000000  -0.2532974), wk =   0.0156250
        k(   58) = (  -1.1965969  -0.6908556  -0.1407208), wk =   0.0000000
        k(   59) = (  -2.6923431   1.5544250   0.0000000), wk =   0.0312500
        k(   60) = (  -3.8889400   0.8635695   0.1125766), wk =   0.0000000
        k(   61) = (  -2.6923431  -1.5544250  -0.0000000), wk =   0.0156250
        k(   62) = (  -3.8889400  -2.2452806   0.1125766), wk =   0.0000000
        k(   63) = (   0.0000000   3.1088500   0.0000000), wk =   0.0312500
        k(   64) = (  -1.1965969   2.4179945   0.1125766), wk =   0.0000000
        k(   65) = (  -1.7948954   1.0362833   0.0844325), wk =   0.0312500
        k(   66) = (  -2.9914923   0.3454278   0.1970091), wk =   0.0000000
        k(   67) = (  -1.7948954  -1.0362833  -0.0844325), wk =   0.0156250
        k(   68) = (  -2.9914923  -1.7271389   0.0281442), wk =   0.0000000
        k(   69) = (   0.0000000   2.0725667  -0.0844325), wk =   0.0312500
        k(   70) = (  -1.1965969   1.3817111   0.0281442), wk =   0.0000000
        k(   71) = (  -2.6923431  -1.5544250  -0.2532974), wk =   0.0156250
        k(   72) = (  -3.8889400  -2.2452806  -0.1407208), wk =   0.0000000
        k(   73) = (   0.0000000  -3.1088500   0.2532974), wk =   0.0312500
        k(   74) = (  -1.1965969  -3.7997056   0.3658741), wk =   0.0000000
        k(   75) = (   2.6923431   1.5544250   0.2532974), wk =   0.0156250
        k(   76) = (   1.4957462   0.8635695   0.3658741), wk =   0.0000000
        k(   77) = (   0.8974477   2.5907084  -0.1688650), wk =   0.0312500
        k(   78) = (  -0.2991492   1.8998528  -0.0562883), wk =   0.0000000
        k(   79) = (  -2.6923431  -0.5181417  -0.1688650), wk =   0.0312500
        k(   80) = (  -3.8889400  -1.2089972  -0.0562883), wk =   0.0000000

     Dense  grid:    59333 G-vectors     FFT dimensions: ( 120, 120, 120)

     Estimated max dynamical RAM per process >       5.82 MB

     Estimated total dynamical RAM >       1.45 GB
     Message from routine sym_rho_init:
     some processors have no G-vectors for symmetrization
     Message from routine sym_rho_init:
     some processors have no G-vectors for symmetrization
     Message from routine sym_rho_init:
     some processors have no G-vectors for symmetrization
     Message from routine sym_rho_init:
     some processors have no G-vectors for symmetrization
     Message from routine sym_rho_init:
     some processors have no G-vectors for symmetrization
     Message from routine sym_rho_init:
     some processors have no G-vectors for symmetrization
     Message from routine sym_rho_init:
     some processors have no G-vectors for symmetrization
     Message from routine sym_rho_init:
     some processors have no G-vectors for symmetrization
     Message from routine sym_rho_init:
     some processors have no G-vectors for symmetrization
     Message from routine sym_rho_init:
     some processors have no G-vectors for symmetrization
     Message from routine sym_rho_init:
     some processors have no G-vectors for symmetrization
     Message from routine sym_rho_init:
     some processors have no G-vectors for symmetrization
     Message from routine sym_rho_init:
     some processors have no G-vectors for symmetrization
     Message from routine sym_rho_init:
     some processors have no G-vectors for symmetrization
     Message from routine sym_rho_init:
     some processors have no G-vectors for symmetrization
     Message from routine sym_rho_init:
     some processors have no G-vectors for symmetrization
     Message from routine sym_rho_init:
     some processors have no G-vectors for symmetrization
     Message from routine sym_rho_init:
     some processors have no G-vectors for symmetrization
     Message from routine sym_rho_init:
     some processors have no G-vectors for symmetrization
     Message from routine sym_rho_init:
     some processors have no G-vectors for symmetrization
     Message from routine sym_rho_init:
     some processors have no G-vectors for symmetrization
     Message from routine sym_rho_init:
     some processors have no G-vectors for symmetrization
     Message from routine sym_rho_init:
     some processors have no G-vectors for symmetrization
     Message from routine sym_rho_init:
     some processors have no G-vectors for symmetrization
     Message from routine sym_rho_init:
     some processors have no G-vectors for symmetrization
     Message from routine sym_rho_init:
     some processors have no G-vectors for symmetrization
     Message from routine sym_rho_init:
     some processors have no G-vectors for symmetrization
     Message from routine sym_rho_init:
     some processors have no G-vectors for symmetrization
     Message from routine sym_rho_init:
     some processors have no G-vectors for symmetrization
     Message from routine sym_rho_init:
     some processors have no G-vectors for symmetrization
     Message from routine sym_rho_init:
     some processors have no G-vectors for symmetrization
     Message from routine sym_rho_init:
     some processors have no G-vectors for symmetrization
     Message from routine sym_rho_init:
     some processors have no G-vectors for symmetrization
     Message from routine sym_rho_init:
     some processors have no G-vectors for symmetrization
     Message from routine sym_rho_init:
     some processors have no G-vectors for symmetrization
     Message from routine sym_rho_init:
     some processors have no G-vectors for symmetrization
     Message from routine sym_rho_init:
     some processors have no G-vectors for symmetrization
     Message from routine sym_rho_init:
     some processors have no G-vectors for symmetrization
     Message from routine sym_rho_init:
     some processors have no G-vectors for symmetrization
     Message from routine sym_rho_init:
     some processors have no G-vectors for symmetrization
     Message from routine sym_rho_init:
     some processors have no G-vectors for symmetrization
     Message from routine sym_rho_init:
     some processors have no G-vectors for symmetrization
     Message from routine sym_rho_init:
     some processors have no G-vectors for symmetrization
     Message from routine sym_rho_init:
     some processors have no G-vectors for symmetrization
     Message from routine sym_rho_init:
     some processors have no G-vectors for symmetrization
     Message from routine sym_rho_init:
     some processors have no G-vectors for symmetrization
     Message from routine sym_rho_init:
     some processors have no G-vectors for symmetrization
     Message from routine sym_rho_init:
     some processors have no G-vectors for symmetrization
     Message from routine sym_rho_init:
     some processors have no G-vectors for symmetrization
     Message from routine sym_rho_init:
     some processors have no G-vectors for symmetrization
     Message from routine sym_rho_init:
     some processors have no G-vectors for symmetrization
     Message from routine sym_rho_init:
     some processors have no G-vectors for symmetrization
     Message from routine sym_rho_init:
     some processors have no G-vectors for symmetrization
     Message from routine sym_rho_init:
     some processors have no G-vectors for symmetrization
     Message from routine sym_rho_init:
     some processors have no G-vectors for symmetrization
     Message from routine sym_rho_init:
     some processors have no G-vectors for symmetrization
     Message from routine sym_rho_init:
     some processors have no G-vectors for symmetrization
     Message from routine sym_rho_init:
     some processors have no G-vectors for symmetrization
     Message from routine sym_rho_init:
     some processors have no G-vectors for symmetrization
     Message from routine sym_rho_init:
     some processors have no G-vectors for symmetrization
     Message from routine sym_rho_init:
     some processors have no G-vectors for symmetrization
     Message from routine sym_rho_init:
     some processors have no G-vectors for symmetrization
     Message from routine sym_rho_init:
     some processors have no G-vectors for symmetrization
     Message from routine sym_rho_init:
     some processors have no G-vectors for symmetrization
     Message from routine sym_rho_init:
     some processors have no G-vectors for symmetrization
     Message from routine sym_rho_init:
     some processors have no G-vectors for symmetrization
     Message from routine sym_rho_init:
     some processors have no G-vectors for symmetrization
     Message from routine sym_rho_init:
     some processors have no G-vectors for symmetrization
     Message from routine sym_rho_init:
     some processors have no G-vectors for symmetrization
     Message from routine sym_rho_init:
     some processors have no G-vectors for symmetrization
     Message from routine sym_rho_init:
     some processors have no G-vectors for symmetrization
     Message from routine sym_rho_init:
     some processors have no G-vectors for symmetrization
     Message from routine sym_rho_init:
     some processors have no G-vectors for symmetrization
     Message from routine sym_rho_init:
     some processors have no G-vectors for symmetrization
     Message from routine sym_rho_init:
     some processors have no G-vectors for symmetrization
     Message from routine sym_rho_init:
     some processors have no G-vectors for symmetrization
     Message from routine sym_rho_init:
     some processors have no G-vectors for symmetrization
     Message from routine sym_rho_init:
     some processors have no G-vectors for symmetrization
     Message from routine sym_rho_init:
     some processors have no G-vectors for symmetrization
     Message from routine sym_rho_init:
     some processors have no G-vectors for symmetrization
     Message from routine sym_rho_init:
     some processors have no G-vectors for symmetrization
     Message from routine sym_rho_init:
     some processors have no G-vectors for symmetrization
     Message from routine sym_rho_init:
     some processors have no G-vectors for symmetrization
     Message from routine sym_rho_init:
     some processors have no G-vectors for symmetrization
     Message from routine sym_rho_init:
     some processors have no G-vectors for symmetrization
     Message from routine sym_rho_init:
     some processors have no G-vectors for symmetrization
     Message from routine sym_rho_init:
     some processors have no G-vectors for symmetrization
     Message from routine sym_rho_init:
     some processors have no G-vectors for symmetrization
     Message from routine sym_rho_init:
     some processors have no G-vectors for symmetrization
     Message from routine sym_rho_init:
     some processors have no G-vectors for symmetrization
     Message from routine sym_rho_init:
     some processors have no G-vectors for symmetrization
     Message from routine sym_rho_init:
     some processors have no G-vectors for symmetrization
     Message from routine sym_rho_init:
     some processors have no G-vectors for symmetrization
     Message from routine sym_rho_init:
     some processors have no G-vectors for symmetrization
     Message from routine sym_rho_init:
     some processors have no G-vectors for symmetrization
     Message from routine sym_rho_init:
     some processors have no G-vectors for symmetrization
     Message from routine sym_rho_init:
     some processors have no G-vectors for symmetrization
     Message from routine sym_rho_init:
     some processors have no G-vectors for symmetrization
     Message from routine sym_rho_init:
     some processors have no G-vectors for symmetrization
     Message from routine sym_rho_init:
     some processors have no G-vectors for symmetrization
     Message from routine sym_rho_init:
     some processors have no G-vectors for symmetrization
     Message from routine sym_rho_init:
     some processors have no G-vectors for symmetrization
     Message from routine sym_rho_init:
     some processors have no G-vectors for symmetrization

     Check: negative core charge=   -0.000024

     The potential is recalculated from file :
     ./tmp/HP/NiI2.save/charge-density


     STARTING HUBBARD OCCUPATIONS:

     =================== HUBBARD OCCUPATIONS ===================
     ------------------------ ATOM    1 ------------------------
     Tr[ns(  1)] (up, down, total) =   4.97059  3.62307  8.59366
     Atomic magnetic moment for atom   1 =   1.34751
     SPIN  1
     eigenvalues:
       0.993  0.993  0.994  0.995  0.995
     eigenvectors (columns):
      -0.000  0.000 -1.000  0.000 -0.000
       0.226  0.378 -0.000  0.760 -0.477
       0.378 -0.226 -0.000 -0.477 -0.760
       0.770 -0.461 -0.000  0.234  0.373
       0.461  0.770 -0.000 -0.373  0.234
     occupation matrix ns (before diag.):
       0.994  0.000  0.000  0.000  0.000
       0.000  0.995  0.000 -0.000 -0.001
       0.000  0.000  0.995 -0.001  0.000
       0.000 -0.000 -0.001  0.994 -0.000
       0.000 -0.001  0.000 -0.000  0.994
     SPIN  2
     eigenvalues:
       0.328  0.328  0.989  0.989  0.989
     eigenvectors (columns):
       0.000  0.000 -0.000  0.000  1.000
      -0.168  0.802  0.328  0.469  0.000
       0.802  0.168  0.469 -0.328  0.000
      -0.560 -0.117  0.672 -0.470  0.000
       0.117 -0.560  0.470  0.672  0.000
     occupation matrix ns (before diag.):
       0.989  0.000  0.000  0.000  0.000
       0.000  0.545  0.000 -0.000  0.310
       0.000  0.000  0.545  0.310  0.000
       0.000 -0.000  0.310  0.772 -0.000
       0.000  0.310  0.000 -0.000  0.772
     ------------------------ ATOM    2 ------------------------
     Tr[ns(  2)] (up, down, total) =   3.57734  4.97402  8.55136
     Atomic magnetic moment for atom   2 =  -1.39668
     SPIN  1
     eigenvalues:
       0.303  0.303  0.990  0.990  0.991
     eigenvectors (columns):
       0.000  0.000 -0.000  0.000  1.000
      -0.164  0.803  0.329  0.470  0.000
       0.803  0.164  0.470 -0.329  0.000
      -0.562 -0.115  0.671 -0.470  0.000
       0.115 -0.562  0.470  0.671  0.000
     occupation matrix ns (before diag.):
       0.991  0.000  0.000  0.000  0.000
       0.000  0.529  0.000 -0.000  0.323
       0.000  0.000  0.529  0.323  0.000
       0.000 -0.000  0.323  0.764 -0.000
       0.000  0.323  0.000 -0.000  0.764
     SPIN  2
     eigenvalues:
       0.994  0.994  0.994  0.996  0.996
     eigenvectors (columns):
      -0.000  0.000 -1.000  0.000 -0.000
       0.226  0.378 -0.000  0.760 -0.477
       0.378 -0.226 -0.000 -0.477 -0.760
       0.770 -0.461 -0.000  0.234  0.374
       0.461  0.770 -0.000 -0.374  0.234
     occupation matrix ns (before diag.):
       0.994  0.000  0.000  0.000  0.000
       0.000  0.995  0.000 -0.000 -0.001
       0.000  0.000  0.995 -0.001  0.000
       0.000 -0.000 -0.001  0.994 -0.000
       0.000 -0.001  0.000 -0.000  0.994

     Number of occupied Hubbard levels =   17.1450

     Atomic wfc used for Hubbard projectors are orthogonalized

     Starting wfcs are   36 atomic wfcs

     Band Structure Calculation
     Davidson diagonalization with overlap

     ethr =  1.00E-11,  avg # of iterations = 18.4

     total cpu time spent up to now is       -1.0 secs

     End of band structure calculation

     Number of k-points >= 100: set verbosity='high' to print the bands.

     highest occupied level (ev):     4.9495

     Writing all to output data dir ./tmp/HP/NiI2.save/ :
     XML data file, pseudopotentials, collected wavefunctions
     Done!

                   WRITING LINEAR-RESPONSE SUMMARY:




     Number of symmetries in the small group of q, nsymq =  2

     G cutoff = 3575.4600  (    233 G-vectors)     FFT grid: (120,120,120)

     Number of k (and k+q if q/=0) points =   160


     Atomic wfc used for the projector on the Hubbard manifold are orthogonalized

     Total time spent up to now is:
     HP           :   5m 5.92s CPU   5m18.88s WALL

      =--------------------------------------------=
                 SOLVE THE LINEAR SYSTEM
      =--------------------------------------------=

      atom #  1   q point #   2   iter #   1
      chi:   1  -0.2914887890
      chi:   2  -0.0000328944
      Average number of iter. to solve lin. system:   50.9
      Total CPU time :   413.5 s

      atom #  1   q point #   2   iter #   2
      chi:   1   0.0943080821   residue:    0.3857968712
      chi:   2   0.0004098160   residue:    0.0004427104
      Average number of iter. to solve lin. system:   27.1
      Total CPU time :   467.2 s

      atom #  1   q point #   2   iter #   3
      chi:   1  -0.0905405115   residue:    0.1848485937
      chi:   2  -0.0004776747   residue:    0.0008874907
      Average number of iter. to solve lin. system:   25.3
      Total CPU time :   517.8 s

      atom #  1   q point #   2   iter #   4
      chi:   1  -0.1096067251   residue:    0.0190662135
      chi:   2   0.0006746500   residue:    0.0011523247
      Average number of iter. to solve lin. system:   27.2
      Total CPU time :   571.6 s

      atom #  1   q point #   2   iter #   5
      chi:   1  -0.1110140278   residue:    0.0014073027
      chi:   2  -0.0004440190   residue:    0.0011186690
      Average number of iter. to solve lin. system:   28.8
      Total CPU time :   628.1 s

      atom #  1   q point #   2   iter #   6
      chi:   1  -0.1112210386   residue:    0.0002070108
      chi:   2   0.0002504100   residue:    0.0006944290
      Average number of iter. to solve lin. system:   28.6
      Total CPU time :   684.5 s

      atom #  1   q point #   2   iter #   7
      chi:   1  -0.1112800410   residue:    0.0000590024
      chi:   2  -0.0000751058   residue:    0.0003255158
      Average number of iter. to solve lin. system:   28.6
      Total CPU time :   741.0 s

      atom #  1   q point #   2   iter #   8
      chi:   1  -0.1114246709   residue:    0.0001446300
      chi:   2   0.0000577994   residue:    0.0001329052
      Average number of iter. to solve lin. system:   29.3
      Total CPU time :   799.0 s

      atom #  1   q point #   2   iter #   9
      chi:   1  -0.1116712896   residue:    0.0002466187
      chi:   2  -0.0000066915   residue:    0.0000644909
      Average number of iter. to solve lin. system:   30.0
      Total CPU time :   858.9 s

      atom #  1   q point #   2   iter #  10
      chi:   1  -0.1117230499   residue:    0.0000517603
      chi:   2   0.0000095680   residue:    0.0000162595
      Average number of iter. to solve lin. system:   30.0
      Total CPU time :   917.9 s

      atom #  1   q point #   2   iter #  11
      chi:   1  -0.1117448909   residue:    0.0000218410
      chi:   2   0.0000077514   residue:    0.0000018166
      Average number of iter. to solve lin. system:   29.0
      Total CPU time :   975.2 s

      atom #  1   q point #   2   iter #  12
      chi:   1  -0.1117372227   residue:    0.0000076682
      chi:   2   0.0000065724   residue:    0.0000011790
      Average number of iter. to solve lin. system:   29.0
      Total CPU time :  1032.5 s
      
      =--------------------------------------------=
             CONVERGENCE HAS BEEN REACHED
      =--------------------------------------------=


     =-------------------------------------------------------------=

     Calculation for q #   3 = (  -1.1965969   0.6908556   0.2251533 )

     =-------------------------------------------------------------=

     Performing NSCF calculation at all points k and k+q...

     Parallelization info
     --------------------
     sticks:   dense  smooth     PW     G-vecs:    dense   smooth      PW
     Min          12      12      4                  230      230      41
     Max          13      13      5                  233      233      46
     Sum        3099    3099   1025                59333    59333   11383

     Using Pencil Decomposition



     bravais-lattice index     =            5
     lattice parameter (alat)  =      26.8360  a.u.
     unit-cell volume          =    1281.9023 (a.u.)^3
     number of atoms/cell      =            6
     number of atomic types    =            3
     number of electrons       =        64.00 (up:  32.00, down:  32.00)
     number of Kohn-Sham states=           32
     kinetic-energy cutoff     =      49.0000  Ry
     charge density cutoff     =     196.0000  Ry
     Exchange-correlation= PBESOL
                           (   1   4  10   8   0   0   0)
     Hubbard projectors: ortho-atomic
     Hubbard parameters of DFT+U (Dudarev formulation) in eV:
     U(Ni1-3d) =  5.4885
     U(Ni2-3d) =  6.4885

     Internal variables: lda_plus_u =T, lda_plus_u_kind = 0

     Internal variables: orbital_resolved =F, hub_pot_fix =F, apply_U = F

     celldm(1)=  26.836001  celldm(2)=   0.000000  celldm(3)=   0.000000
     celldm(4)=   0.961200  celldm(5)=   0.000000  celldm(6)=   0.000000

     crystal axes: (cart. coord. in units of alat)
               a(1) = (   0.139284  -0.080416   0.986982 )  
               a(2) = (   0.000000   0.160831   0.986982 )  
               a(3) = (  -0.139284  -0.080416   0.986982 )  

     reciprocal axes: (cart. coord. in units 2 pi/alat)
               b(1) = (  3.589791 -2.072567  0.337730 )  
               b(2) = (  0.000000  4.145133  0.337730 )  
               b(3) = ( -3.589791 -2.072567  0.337730 )  


     PseudoPot. # 1 for Ni read from file:
     ./Pseudos/Ni_pbesol.upf
     MD5 check sum: 3ec56ad6bf78c9cc1bbec815420e1c7d
     Pseudo is Norm-conserving + core correction, Zval = 18.0
     Generated using ONCVPSP code by D. R. Hamann
     Using radial grid of 1356 points,  6 beta functions with: 
                l(1) =   0
                l(2) =   0
                l(3) =   1
                l(4) =   1
                l(5) =   2
                l(6) =   2

     PseudoPot. # 2 for Ni read from file:
     ./Pseudos/Ni_pbesol.upf
     MD5 check sum: 3ec56ad6bf78c9cc1bbec815420e1c7d
     Pseudo is Norm-conserving + core correction, Zval = 18.0
     Generated using ONCVPSP code by D. R. Hamann
     Using radial grid of 1356 points,  6 beta functions with: 
                l(1) =   0
                l(2) =   0
                l(3) =   1
                l(4) =   1
                l(5) =   2
                l(6) =   2

     PseudoPot. # 3 for I  read from file:
     ./Pseudos/I_pbesol.upf
     MD5 check sum: 80ed5ceb2eb9c553cfb6760a299d9c5b
     Pseudo is Norm-conserving + core correction, Zval =  7.0
     Generated using ONCVPSP code by D. R. Hamann
     Using radial grid of 1182 points,  6 beta functions with: 
                l(1) =   0
                l(2) =   0
                l(3) =   1
                l(4) =   1
                l(5) =   2
                l(6) =   2

     atomic species   valence    mass     pseudopotential
     Ni1              18.00    58.69340     Ni( 1.00)
     Ni2              18.00    58.69340     Ni( 1.00)
     I                 7.00   126.90447     I ( 1.00)

     Starting magnetic structure 
     atomic species   magnetization
     Ni1             0.600
     Ni2            -0.600
     I               0.000

     12 Sym. Ops., with inversion, found



   Cartesian axes

     site n.     atom                  positions (alat units)
         1        Ni1    tau(   1) = (   0.0000000   0.0000000   0.0000000  )
         2        Ni2    tau(   2) = (   0.1392839   0.0804156   0.4934910  )
         3        I      tau(   3) = (  -0.0000000  -0.0000000   0.3856062  )
         4        I      tau(   4) = (   0.1392839   0.0804156   0.8790972  )
         5        I      tau(   5) = (   0.1392839   0.0804156   0.1078847  )
         6        I      tau(   6) = (   0.1392839  -0.0804156   0.6013757  )

     number of k points=    80
                       cart. coord. in units 2pi/alat
        k(    1) = (   0.0000000   0.0000000   0.0000000), wk =   0.0156250
        k(    2) = (  -1.1965969   0.6908556   0.2251533), wk =   0.0000000
        k(    3) = (  -0.8974477  -0.5181417   0.0844325), wk =   0.0312500
        k(    4) = (  -2.0940446   0.1727139   0.3095858), wk =   0.0000000
        k(    5) = (   1.7948954   1.0362833  -0.1688650), wk =   0.0312500
        k(    6) = (   0.5982985   1.7271389   0.0562883), wk =   0.0000000
        k(    7) = (  -0.8974477   0.5181417   0.1688650), wk =   0.0156250
        k(    8) = (  -2.0940446   1.2089972   0.3940182), wk =   0.0000000
        k(    9) = (   1.7948954   2.0725667  -0.0844325), wk =   0.0312500
        k(   10) = (   0.5982985   2.7634222   0.1407208), wk =   0.0000000
        k(   11) = (   0.8974477   1.5544250   0.0000000), wk =   0.0312500
        k(   12) = (  -0.2991492   2.2452806   0.2251533), wk =   0.0000000
        k(   13) = (   1.7948954  -1.0362833  -0.3377299), wk =   0.0156250
        k(   14) = (   0.5982985  -0.3454278  -0.1125766), wk =   0.0000000
        k(   15) = (   0.0000000   0.0000000   0.2532974), wk =   0.0156250
        k(   16) = (  -1.1965969   0.6908556   0.4784507), wk =   0.0000000
        k(   17) = (   2.6923431   1.5544250   0.0000000), wk =   0.0312500
        k(   18) = (   1.4957462   2.2452806   0.2251533), wk =   0.0000000
        k(   19) = (   1.7948954   1.0362833   0.0844325), wk =   0.0312500
        k(   20) = (   0.5982985   1.7271389   0.3095858), wk =   0.0000000
        k(   21) = (   2.6923431  -1.5544250  -0.2532974), wk =   0.0156250
        k(   22) = (   1.4957462  -0.8635695  -0.0281442), wk =   0.0000000
        k(   23) = (   1.7948954  -2.0725667  -0.1688650), wk =   0.0312500
        k(   24) = (   0.5982985  -1.3817111   0.0562883), wk =   0.0000000
        k(   25) = (   0.0000000   0.0000000  -0.5065949), wk =   0.0156250
        k(   26) = (  -1.1965969   0.6908556  -0.2814416), wk =   0.0000000
        k(   27) = (   0.8974477  -0.5181417   0.0844325), wk =   0.0156250
        k(   28) = (  -0.2991492   0.1727139   0.3095858), wk =   0.0000000
        k(   29) = (   0.8974477   0.5181417  -0.0844325), wk =   0.0312500
        k(   30) = (  -0.2991492   1.2089972   0.1407208), wk =   0.0000000
        k(   31) = (  -0.8974477   0.5181417  -0.0844325), wk =   0.0156250
        k(   32) = (  -2.0940446   1.2089972   0.1407208), wk =   0.0000000
        k(   33) = (  -1.7948954   1.0362833  -0.1688650), wk =   0.0156250
        k(   34) = (  -2.9914923   1.7271389   0.0562883), wk =   0.0000000
        k(   35) = (  -0.0000000  -1.0362833   0.1688650), wk =   0.0312500
        k(   36) = (  -1.1965969  -0.3454278   0.3940182), wk =   0.0000000
        k(   37) = (  -0.0000000   1.0362833  -0.1688650), wk =   0.0312500
        k(   38) = (  -1.1965969   1.7271389   0.0562883), wk =   0.0000000
        k(   39) = (   0.8974477  -0.5181417  -0.1688650), wk =   0.0156250
        k(   40) = (  -0.2991492   0.1727139   0.0562883), wk =   0.0000000
        k(   41) = (  -2.6923431   0.5181417  -0.0844325), wk =   0.0312500
        k(   42) = (  -3.8889400   1.2089972   0.1407208), wk =   0.0000000
        k(   43) = (   0.8974477  -2.5907084  -0.0844325), wk =   0.0312500
        k(   44) = (  -0.2991492  -1.8998528   0.1407208), wk =   0.0000000
        k(   45) = (  -2.6923431  -0.5181417   0.0844325), wk =   0.0312500
        k(   46) = (  -3.8889400   0.1727139   0.3095858), wk =   0.0000000
        k(   47) = (   0.8974477   2.5907084   0.0844325), wk =   0.0312500
        k(   48) = (  -0.2991492   3.2815639   0.3095858), wk =   0.0000000
        k(   49) = (   2.6923431  -0.5181417   0.0844325), wk =   0.0312500
        k(   50) = (   1.4957462   0.1727139   0.3095858), wk =   0.0000000
        k(   51) = (  -1.7948954  -0.0000000   0.0000000), wk =   0.0312500
        k(   52) = (  -2.9914923   0.6908556   0.2251533), wk =   0.0000000
        k(   53) = (   0.8974477  -1.5544250  -0.0000000), wk =   0.0312500
        k(   54) = (  -0.2991492  -0.8635695   0.2251533), wk =   0.0000000
        k(   55) = (   0.0000000   2.0725667  -0.3377299), wk =   0.0312500
        k(   56) = (  -1.1965969   2.7634222  -0.1125766), wk =   0.0000000
        k(   57) = (   0.0000000   0.0000000  -0.2532974), wk =   0.0156250
        k(   58) = (  -1.1965969   0.6908556  -0.0281442), wk =   0.0000000
        k(   59) = (  -2.6923431   1.5544250   0.0000000), wk =   0.0156250
        k(   60) = (  -3.8889400   2.2452806   0.2251533), wk =   0.0000000
        k(   61) = (  -2.6923431  -1.5544250  -0.0000000), wk =   0.0312500
        k(   62) = (  -3.8889400  -0.8635695   0.2251533), wk =   0.0000000
        k(   63) = (   2.6923431  -1.5544250  -0.0000000), wk =   0.0156250
        k(   64) = (   1.4957462  -0.8635695   0.2251533), wk =   0.0000000
        k(   65) = (  -1.7948954   1.0362833   0.0844325), wk =   0.0156250
        k(   66) = (  -2.9914923   1.7271389   0.3095858), wk =   0.0000000
        k(   67) = (  -1.7948954  -1.0362833  -0.0844325), wk =   0.0312500
        k(   68) = (  -2.9914923  -0.3454278   0.1407208), wk =   0.0000000
        k(   69) = (   1.7948954  -1.0362833  -0.0844325), wk =   0.0156250
        k(   70) = (   0.5982985  -0.3454278   0.1407208), wk =   0.0000000
        k(   71) = (   0.0000000   3.1088500  -0.2532974), wk =   0.0312500
        k(   72) = (  -1.1965969   3.7997056  -0.0281442), wk =   0.0000000
        k(   73) = (   0.0000000  -3.1088500   0.2532974), wk =   0.0312500
        k(   74) = (  -1.1965969  -2.4179945   0.4784507), wk =   0.0000000
        k(   75) = (  -2.6923431   1.5544250   0.2532974), wk =   0.0156250
        k(   76) = (  -3.8889400   2.2452806   0.4784507), wk =   0.0000000
        k(   77) = (   0.8974477   2.5907084  -0.1688650), wk =   0.0312500
        k(   78) = (  -0.2991492   3.2815639   0.0562883), wk =   0.0000000
        k(   79) = (  -2.6923431  -0.5181417  -0.1688650), wk =   0.0312500
        k(   80) = (  -3.8889400   0.1727139   0.0562883), wk =   0.0000000

     Dense  grid:    59333 G-vectors     FFT dimensions: ( 120, 120, 120)

     Estimated max dynamical RAM per process >       5.82 MB

     Estimated total dynamical RAM >       1.45 GB
     Message from routine sym_rho_init:
     some processors have no G-vectors for symmetrization
     Message from routine sym_rho_init:
     some processors have no G-vectors for symmetrization
     Message from routine sym_rho_init:
     some processors have no G-vectors for symmetrization
     Message from routine sym_rho_init:
     some processors have no G-vectors for symmetrization
     Message from routine sym_rho_init:
     some processors have no G-vectors for symmetrization
     Message from routine sym_rho_init:
     some processors have no G-vectors for symmetrization
     Message from routine sym_rho_init:
     some processors have no G-vectors for symmetrization
     Message from routine sym_rho_init:
     some processors have no G-vectors for symmetrization
     Message from routine sym_rho_init:
     some processors have no G-vectors for symmetrization
     Message from routine sym_rho_init:
     some processors have no G-vectors for symmetrization
     Message from routine sym_rho_init:
     some processors have no G-vectors for symmetrization
     Message from routine sym_rho_init:
     some processors have no G-vectors for symmetrization
     Message from routine sym_rho_init:
     some processors have no G-vectors for symmetrization
     Message from routine sym_rho_init:
     some processors have no G-vectors for symmetrization
     Message from routine sym_rho_init:
     some processors have no G-vectors for symmetrization
     Message from routine sym_rho_init:
     some processors have no G-vectors for symmetrization
     Message from routine sym_rho_init:
     some processors have no G-vectors for symmetrization
     Message from routine sym_rho_init:
     some processors have no G-vectors for symmetrization
     Message from routine sym_rho_init:
     some processors have no G-vectors for symmetrization
     Message from routine sym_rho_init:
     some processors have no G-vectors for symmetrization
     Message from routine sym_rho_init:
     some processors have no G-vectors for symmetrization
     Message from routine sym_rho_init:
     some processors have no G-vectors for symmetrization
     Message from routine sym_rho_init:
     some processors have no G-vectors for symmetrization
     Message from routine sym_rho_init:
     some processors have no G-vectors for symmetrization
     Message from routine sym_rho_init:
     some processors have no G-vectors for symmetrization
     Message from routine sym_rho_init:
     some processors have no G-vectors for symmetrization
     Message from routine sym_rho_init:
     some processors have no G-vectors for symmetrization
     Message from routine sym_rho_init:
     some processors have no G-vectors for symmetrization
     Message from routine sym_rho_init:
     some processors have no G-vectors for symmetrization
     Message from routine sym_rho_init:
     some processors have no G-vectors for symmetrization
     Message from routine sym_rho_init:
     some processors have no G-vectors for symmetrization
     Message from routine sym_rho_init:
     some processors have no G-vectors for symmetrization
     Message from routine sym_rho_init:
     some processors have no G-vectors for symmetrization
     Message from routine sym_rho_init:
     some processors have no G-vectors for symmetrization
     Message from routine sym_rho_init:
     some processors have no G-vectors for symmetrization
     Message from routine sym_rho_init:
     some processors have no G-vectors for symmetrization
     Message from routine sym_rho_init:
     some processors have no G-vectors for symmetrization
     Message from routine sym_rho_init:
     some processors have no G-vectors for symmetrization
     Message from routine sym_rho_init:
     some processors have no G-vectors for symmetrization
     Message from routine sym_rho_init:
     some processors have no G-vectors for symmetrization
     Message from routine sym_rho_init:
     some processors have no G-vectors for symmetrization
     Message from routine sym_rho_init:
     some processors have no G-vectors for symmetrization
     Message from routine sym_rho_init:
     some processors have no G-vectors for symmetrization
     Message from routine sym_rho_init:
     some processors have no G-vectors for symmetrization
     Message from routine sym_rho_init:
     some processors have no G-vectors for symmetrization
     Message from routine sym_rho_init:
     some processors have no G-vectors for symmetrization
     Message from routine sym_rho_init:
     some processors have no G-vectors for symmetrization
     Message from routine sym_rho_init:
     some processors have no G-vectors for symmetrization
     Message from routine sym_rho_init:
     some processors have no G-vectors for symmetrization
     Message from routine sym_rho_init:
     some processors have no G-vectors for symmetrization
     Message from routine sym_rho_init:
     some processors have no G-vectors for symmetrization
     Message from routine sym_rho_init:
     some processors have no G-vectors for symmetrization
     Message from routine sym_rho_init:
     some processors have no G-vectors for symmetrization
     Message from routine sym_rho_init:
     some processors have no G-vectors for symmetrization
     Message from routine sym_rho_init:
     some processors have no G-vectors for symmetrization
     Message from routine sym_rho_init:
     some processors have no G-vectors for symmetrization
     Message from routine sym_rho_init:
     some processors have no G-vectors for symmetrization
     Message from routine sym_rho_init:
     some processors have no G-vectors for symmetrization
     Message from routine sym_rho_init:
     some processors have no G-vectors for symmetrization
     Message from routine sym_rho_init:
     some processors have no G-vectors for symmetrization
     Message from routine sym_rho_init:
     some processors have no G-vectors for symmetrization
     Message from routine sym_rho_init:
     some processors have no G-vectors for symmetrization
     Message from routine sym_rho_init:
     some processors have no G-vectors for symmetrization
     Message from routine sym_rho_init:
     some processors have no G-vectors for symmetrization
     Message from routine sym_rho_init:
     some processors have no G-vectors for symmetrization
     Message from routine sym_rho_init:
     some processors have no G-vectors for symmetrization
     Message from routine sym_rho_init:
     some processors have no G-vectors for symmetrization
     Message from routine sym_rho_init:
     some processors have no G-vectors for symmetrization
     Message from routine sym_rho_init:
     some processors have no G-vectors for symmetrization
     Message from routine sym_rho_init:
     some processors have no G-vectors for symmetrization
     Message from routine sym_rho_init:
     some processors have no G-vectors for symmetrization
     Message from routine sym_rho_init:
     some processors have no G-vectors for symmetrization
     Message from routine sym_rho_init:
     some processors have no G-vectors for symmetrization
     Message from routine sym_rho_init:
     some processors have no G-vectors for symmetrization
     Message from routine sym_rho_init:
     some processors have no G-vectors for symmetrization
     Message from routine sym_rho_init:
     some processors have no G-vectors for symmetrization
     Message from routine sym_rho_init:
     some processors have no G-vectors for symmetrization
     Message from routine sym_rho_init:
     some processors have no G-vectors for symmetrization
     Message from routine sym_rho_init:
     some processors have no G-vectors for symmetrization
     Message from routine sym_rho_init:
     some processors have no G-vectors for symmetrization
     Message from routine sym_rho_init:
     some processors have no G-vectors for symmetrization
     Message from routine sym_rho_init:
     some processors have no G-vectors for symmetrization
     Message from routine sym_rho_init:
     some processors have no G-vectors for symmetrization
     Message from routine sym_rho_init:
     some processors have no G-vectors for symmetrization
     Message from routine sym_rho_init:
     some processors have no G-vectors for symmetrization
     Message from routine sym_rho_init:
     some processors have no G-vectors for symmetrization
     Message from routine sym_rho_init:
     some processors have no G-vectors for symmetrization
     Message from routine sym_rho_init:
     some processors have no G-vectors for symmetrization
     Message from routine sym_rho_init:
     some processors have no G-vectors for symmetrization
     Message from routine sym_rho_init:
     some processors have no G-vectors for symmetrization
     Message from routine sym_rho_init:
     some processors have no G-vectors for symmetrization
     Message from routine sym_rho_init:
     some processors have no G-vectors for symmetrization
     Message from routine sym_rho_init:
     some processors have no G-vectors for symmetrization
     Message from routine sym_rho_init:
     some processors have no G-vectors for symmetrization
     Message from routine sym_rho_init:
     some processors have no G-vectors for symmetrization
     Message from routine sym_rho_init:
     some processors have no G-vectors for symmetrization
     Message from routine sym_rho_init:
     some processors have no G-vectors for symmetrization
     Message from routine sym_rho_init:
     some processors have no G-vectors for symmetrization
     Message from routine sym_rho_init:
     some processors have no G-vectors for symmetrization

     Check: negative core charge=   -0.000024

     The potential is recalculated from file :
     ./tmp/HP/NiI2.save/charge-density


     STARTING HUBBARD OCCUPATIONS:

     =================== HUBBARD OCCUPATIONS ===================
     ------------------------ ATOM    1 ------------------------
     Tr[ns(  1)] (up, down, total) =   4.97059  3.62307  8.59366
     Atomic magnetic moment for atom   1 =   1.34751
     SPIN  1
     eigenvalues:
       0.993  0.993  0.994  0.995  0.995
     eigenvectors (columns):
      -0.000  0.000 -1.000  0.000 -0.000
       0.226  0.378 -0.000  0.760 -0.477
       0.378 -0.226 -0.000 -0.477 -0.760
       0.770 -0.461 -0.000  0.234  0.373
       0.461  0.770 -0.000 -0.373  0.234
     occupation matrix ns (before diag.):
       0.994  0.000  0.000  0.000  0.000
       0.000  0.995  0.000 -0.000 -0.001
       0.000  0.000  0.995 -0.001  0.000
       0.000 -0.000 -0.001  0.994 -0.000
       0.000 -0.001  0.000 -0.000  0.994
     SPIN  2
     eigenvalues:
       0.328  0.328  0.989  0.989  0.989
     eigenvectors (columns):
       0.000  0.000 -0.000  0.000  1.000
      -0.168  0.802  0.328  0.469  0.000
       0.802  0.168  0.469 -0.328  0.000
      -0.560 -0.117  0.672 -0.470  0.000
       0.117 -0.560  0.470  0.672  0.000
     occupation matrix ns (before diag.):
       0.989  0.000  0.000  0.000  0.000
       0.000  0.545  0.000 -0.000  0.310
       0.000  0.000  0.545  0.310  0.000
       0.000 -0.000  0.310  0.772 -0.000
       0.000  0.310  0.000 -0.000  0.772
     ------------------------ ATOM    2 ------------------------
     Tr[ns(  2)] (up, down, total) =   3.57734  4.97402  8.55136
     Atomic magnetic moment for atom   2 =  -1.39668
     SPIN  1
     eigenvalues:
       0.303  0.303  0.990  0.990  0.991
     eigenvectors (columns):
       0.000  0.000 -0.000  0.000  1.000
      -0.164  0.803  0.329  0.470  0.000
       0.803  0.164  0.470 -0.329  0.000
      -0.562 -0.115  0.671 -0.470  0.000
       0.115 -0.562  0.470  0.671  0.000
     occupation matrix ns (before diag.):
       0.991  0.000  0.000  0.000  0.000
       0.000  0.529  0.000 -0.000  0.323
       0.000  0.000  0.529  0.323  0.000
       0.000 -0.000  0.323  0.764 -0.000
       0.000  0.323  0.000 -0.000  0.764
     SPIN  2
     eigenvalues:
       0.994  0.994  0.994  0.996  0.996
     eigenvectors (columns):
      -0.000  0.000 -1.000  0.000 -0.000
       0.226  0.378 -0.000  0.760 -0.477
       0.378 -0.226 -0.000 -0.477 -0.760
       0.770 -0.461 -0.000  0.234  0.374
       0.461  0.770 -0.000 -0.374  0.234
     occupation matrix ns (before diag.):
       0.994  0.000  0.000  0.000  0.000
       0.000  0.995  0.000 -0.000 -0.001
       0.000  0.000  0.995 -0.001  0.000
       0.000 -0.000 -0.001  0.994 -0.000
       0.000 -0.001  0.000 -0.000  0.994

     Number of occupied Hubbard levels =   17.1450

     Atomic wfc used for Hubbard projectors are orthogonalized

     Starting wfcs are   36 atomic wfcs

     Band Structure Calculation
     Davidson diagonalization with overlap

     ethr =  1.00E-11,  avg # of iterations = 18.4

     total cpu time spent up to now is       -1.0 secs

     End of band structure calculation

     Number of k-points >= 100: set verbosity='high' to print the bands.

     highest occupied level (ev):     4.9495

     Writing all to output data dir ./tmp/HP/NiI2.save/ :
     XML data file, pseudopotentials, collected wavefunctions
     Done!

                   WRITING LINEAR-RESPONSE SUMMARY:




     Number of symmetries in the small group of q, nsymq =  2

     G cutoff = 3575.4600  (    233 G-vectors)     FFT grid: (120,120,120)

     Number of k (and k+q if q/=0) points =   160


     Atomic wfc used for the projector on the Hubbard manifold are orthogonalized

     Total time spent up to now is:
     HP           :  18m15.99s CPU  18m40.21s WALL

      =--------------------------------------------=
                 SOLVE THE LINEAR SYSTEM
      =--------------------------------------------=

      atom #  1   q point #   3   iter #   1
      chi:   1  -0.2914668861
      chi:   2  -0.0001187867
      Average number of iter. to solve lin. system:   50.8
      Total CPU time :  1214.6 s

      atom #  1   q point #   3   iter #   2
      chi:   1   0.0942642141   residue:    0.3857311001
      chi:   2   0.0000141951   residue:    0.0001329818
      Average number of iter. to solve lin. system:   27.2
      Total CPU time :  1268.6 s

      atom #  1   q point #   3   iter #   3
      chi:   1  -0.0908538844   residue:    0.1851180985
      chi:   2   0.0000838323   residue:    0.0000696372
      Average number of iter. to solve lin. system:   25.3
      Total CPU time :  1319.4 s

      atom #  1   q point #   3   iter #   4
      chi:   1  -0.1102325372   residue:    0.0193786529
      chi:   2   0.0001838362   residue:    0.0001000039
      Average number of iter. to solve lin. system:   26.7
      Total CPU time :  1373.1 s

      atom #  1   q point #   3   iter #   5
      chi:   1  -0.1111442177   residue:    0.0009116804
      chi:   2  -0.0003050855   residue:    0.0004889217
      Average number of iter. to solve lin. system:   28.1
      Total CPU time :  1428.6 s

      atom #  1   q point #   3   iter #   6
      chi:   1  -0.1112227929   residue:    0.0000785753
      chi:   2   0.0003999202   residue:    0.0007050057
      Average number of iter. to solve lin. system:   28.0
      Total CPU time :  1484.1 s

      atom #  1   q point #   3   iter #   7
      chi:   1  -0.1113257526   residue:    0.0001029596
      chi:   2  -0.0001503400   residue:    0.0005502602
      Average number of iter. to solve lin. system:   28.5
      Total CPU time :  1540.4 s

      atom #  1   q point #   3   iter #   8
      chi:   1  -0.1114496247   residue:    0.0001238722
      chi:   2   0.0001328414   residue:    0.0002831814
      Average number of iter. to solve lin. system:   29.4
      Total CPU time :  1598.3 s

      atom #  1   q point #   3   iter #   9
      chi:   1  -0.1116604875   residue:    0.0002108628
      chi:   2  -0.0000070590   residue:    0.0001399004
      Average number of iter. to solve lin. system:   29.5
      Total CPU time :  1656.4 s

      atom #  1   q point #   3   iter #  10
      chi:   1  -0.1117237144   residue:    0.0000632269
      chi:   2   0.0000340656   residue:    0.0000411246
      Average number of iter. to solve lin. system:   30.0
      Total CPU time :  1715.7 s

      atom #  1   q point #   3   iter #  11
      chi:   1  -0.1117402108   residue:    0.0000164964
      chi:   2   0.0000254639   residue:    0.0000086016
      Average number of iter. to solve lin. system:   29.4
      Total CPU time :  1773.8 s

      atom #  1   q point #   3   iter #  12
      chi:   1  -0.1117308053   residue:    0.0000094055
      chi:   2   0.0000289694   residue:    0.0000035054
      Average number of iter. to solve lin. system:   30.1
      Total CPU time :  1833.1 s
      
      =--------------------------------------------=
             CONVERGENCE HAS BEEN REACHED
      =--------------------------------------------=


     =-------------------------------------------------------------=

     Calculation for q #   4 = (   1.1965969   2.0725667   0.0000000 )

     =-------------------------------------------------------------=

     Performing NSCF calculation at all points k and k+q...

     Parallelization info
     --------------------
     sticks:   dense  smooth     PW     G-vecs:    dense   smooth      PW
     Min          12      12      4                  230      230      46
     Max          13      13      5                  233      233      49
     Sum        3099    3099   1069                59333    59333   12099

     Using Pencil Decomposition



     bravais-lattice index     =            5
     lattice parameter (alat)  =      26.8360  a.u.
     unit-cell volume          =    1281.9023 (a.u.)^3
     number of atoms/cell      =            6
     number of atomic types    =            3
     number of electrons       =        64.00 (up:  32.00, down:  32.00)
     number of Kohn-Sham states=           32
     kinetic-energy cutoff     =      49.0000  Ry
     charge density cutoff     =     196.0000  Ry
     Exchange-correlation= PBESOL
                           (   1   4  10   8   0   0   0)
     Hubbard projectors: ortho-atomic
     Hubbard parameters of DFT+U (Dudarev formulation) in eV:
     U(Ni1-3d) =  5.4885
     U(Ni2-3d) =  6.4885

     Internal variables: lda_plus_u =T, lda_plus_u_kind = 0

     Internal variables: orbital_resolved =F, hub_pot_fix =F, apply_U = F

     celldm(1)=  26.836001  celldm(2)=   0.000000  celldm(3)=   0.000000
     celldm(4)=   0.961200  celldm(5)=   0.000000  celldm(6)=   0.000000

     crystal axes: (cart. coord. in units of alat)
               a(1) = (   0.139284  -0.080416   0.986982 )  
               a(2) = (   0.000000   0.160831   0.986982 )  
               a(3) = (  -0.139284  -0.080416   0.986982 )  

     reciprocal axes: (cart. coord. in units 2 pi/alat)
               b(1) = (  3.589791 -2.072567  0.337730 )  
               b(2) = (  0.000000  4.145133  0.337730 )  
               b(3) = ( -3.589791 -2.072567  0.337730 )  


     PseudoPot. # 1 for Ni read from file:
     ./Pseudos/Ni_pbesol.upf
     MD5 check sum: 3ec56ad6bf78c9cc1bbec815420e1c7d
     Pseudo is Norm-conserving + core correction, Zval = 18.0
     Generated using ONCVPSP code by D. R. Hamann
     Using radial grid of 1356 points,  6 beta functions with: 
                l(1) =   0
                l(2) =   0
                l(3) =   1
                l(4) =   1
                l(5) =   2
                l(6) =   2

     PseudoPot. # 2 for Ni read from file:
     ./Pseudos/Ni_pbesol.upf
     MD5 check sum: 3ec56ad6bf78c9cc1bbec815420e1c7d
     Pseudo is Norm-conserving + core correction, Zval = 18.0
     Generated using ONCVPSP code by D. R. Hamann
     Using radial grid of 1356 points,  6 beta functions with: 
                l(1) =   0
                l(2) =   0
                l(3) =   1
                l(4) =   1
                l(5) =   2
                l(6) =   2

     PseudoPot. # 3 for I  read from file:
     ./Pseudos/I_pbesol.upf
     MD5 check sum: 80ed5ceb2eb9c553cfb6760a299d9c5b
     Pseudo is Norm-conserving + core correction, Zval =  7.0
     Generated using ONCVPSP code by D. R. Hamann
     Using radial grid of 1182 points,  6 beta functions with: 
                l(1) =   0
                l(2) =   0
                l(3) =   1
                l(4) =   1
                l(5) =   2
                l(6) =   2

     atomic species   valence    mass     pseudopotential
     Ni1              18.00    58.69340     Ni( 1.00)
     Ni2              18.00    58.69340     Ni( 1.00)
     I                 7.00   126.90447     I ( 1.00)

     Starting magnetic structure 
     atomic species   magnetization
     Ni1             0.600
     Ni2            -0.600
     I               0.000

     12 Sym. Ops., with inversion, found



   Cartesian axes

     site n.     atom                  positions (alat units)
         1        Ni1    tau(   1) = (   0.0000000   0.0000000   0.0000000  )
         2        Ni2    tau(   2) = (   0.1392839   0.0804156   0.4934910  )
         3        I      tau(   3) = (  -0.0000000  -0.0000000   0.3856062  )
         4        I      tau(   4) = (   0.1392839   0.0804156   0.8790972  )
         5        I      tau(   5) = (   0.1392839   0.0804156   0.1078847  )
         6        I      tau(   6) = (   0.1392839  -0.0804156   0.6013757  )

     number of k points=    72
                       cart. coord. in units 2pi/alat
        k(    1) = (   0.0000000   0.0000000   0.0000000), wk =   0.0156250
        k(    2) = (   1.1965969   2.0725667   0.0000000), wk =   0.0000000
        k(    3) = (  -0.8974477  -0.5181417   0.0844325), wk =   0.0312500
        k(    4) = (   0.2991492   1.5544250   0.0844325), wk =   0.0000000
        k(    5) = (   1.7948954   1.0362833  -0.1688650), wk =   0.0312500
        k(    6) = (   2.9914923   3.1088500  -0.1688650), wk =   0.0000000
        k(    7) = (  -0.8974477   0.5181417   0.1688650), wk =   0.0312500
        k(    8) = (   0.2991492   2.5907084   0.1688650), wk =   0.0000000
        k(    9) = (   1.7948954   2.0725667  -0.0844325), wk =   0.0312500
        k(   10) = (   2.9914923   4.1451334  -0.0844325), wk =   0.0000000
        k(   11) = (   0.8974477   1.5544250   0.0000000), wk =   0.0156250
        k(   12) = (   2.0940446   3.6269917   0.0000000), wk =   0.0000000
        k(   13) = (   1.7948954  -1.0362833  -0.3377299), wk =   0.0156250
        k(   14) = (   2.9914923   1.0362833  -0.3377299), wk =   0.0000000
        k(   15) = (   0.0000000   0.0000000   0.2532974), wk =   0.0312500
        k(   16) = (   1.1965969   2.0725667   0.2532974), wk =   0.0000000
        k(   17) = (   2.6923431   1.5544250   0.0000000), wk =   0.0312500
        k(   18) = (   3.8889400   3.6269917   0.0000000), wk =   0.0000000
        k(   19) = (   1.7948954   1.0362833   0.0844325), wk =   0.0312500
        k(   20) = (   2.9914923   3.1088500   0.0844325), wk =   0.0000000
        k(   21) = (   2.6923431  -1.5544250  -0.2532974), wk =   0.0312500
        k(   22) = (   3.8889400   0.5181417  -0.2532974), wk =   0.0000000
        k(   23) = (   1.7948954  -2.0725667  -0.1688650), wk =   0.0312500
        k(   24) = (   2.9914923   0.0000000  -0.1688650), wk =   0.0000000
        k(   25) = (   0.0000000   0.0000000  -0.5065949), wk =   0.0156250
        k(   26) = (   1.1965969   2.0725667  -0.5065949), wk =   0.0000000
        k(   27) = (   0.8974477  -0.5181417   0.0844325), wk =   0.0312500
        k(   28) = (   2.0940446   1.5544250   0.0844325), wk =   0.0000000
        k(   29) = (  -0.0000000   1.0362833   0.0844325), wk =   0.0312500
        k(   30) = (   1.1965969   3.1088500   0.0844325), wk =   0.0000000
        k(   31) = (  -1.7948954   1.0362833  -0.1688650), wk =   0.0156250
        k(   32) = (  -0.5982985   3.1088500  -0.1688650), wk =   0.0000000
        k(   33) = (  -0.0000000  -1.0362833   0.1688650), wk =   0.0312500
        k(   34) = (   1.1965969   1.0362833   0.1688650), wk =   0.0000000
        k(   35) = (   0.8974477   0.5181417   0.1688650), wk =   0.0312500
        k(   36) = (   2.0940446   2.5907084   0.1688650), wk =   0.0000000
        k(   37) = (  -2.6923431   0.5181417  -0.0844325), wk =   0.0312500
        k(   38) = (  -1.4957462   2.5907084  -0.0844325), wk =   0.0000000
        k(   39) = (   0.8974477  -2.5907084  -0.0844325), wk =   0.0312500
        k(   40) = (   2.0940446  -0.5181417  -0.0844325), wk =   0.0000000
        k(   41) = (  -0.8974477  -2.5907084  -0.0844325), wk =   0.0312500
        k(   42) = (   0.2991492  -0.5181417  -0.0844325), wk =   0.0000000
        k(   43) = (  -1.7948954   2.0725667  -0.0844325), wk =   0.0312500
        k(   44) = (  -0.5982985   4.1451334  -0.0844325), wk =   0.0000000
        k(   45) = (  -0.8974477   2.5907084   0.0844325), wk =   0.0312500
        k(   46) = (   0.2991492   4.6632750   0.0844325), wk =   0.0000000
        k(   47) = (  -1.7948954  -0.0000000   0.0000000), wk =   0.0312500
        k(   48) = (  -0.5982985   2.0725667   0.0000000), wk =   0.0000000
        k(   49) = (  -0.8974477  -1.5544250  -0.0000000), wk =   0.0156250
        k(   50) = (   0.2991492   0.5181417   0.0000000), wk =   0.0000000
        k(   51) = (  -0.8974477   1.5544250   0.0000000), wk =   0.0312500
        k(   52) = (   0.2991492   3.6269917   0.0000000), wk =   0.0000000
        k(   53) = (   0.0000000   2.0725667  -0.3377299), wk =   0.0312500
        k(   54) = (   1.1965969   4.1451334  -0.3377299), wk =   0.0000000
        k(   55) = (  -2.6923431   1.5544250   0.0000000), wk =   0.0312500
        k(   56) = (  -1.4957462   3.6269917   0.0000000), wk =   0.0000000
        k(   57) = (   0.0000000  -3.1088500  -0.0000000), wk =   0.0312500
        k(   58) = (   1.1965969  -1.0362833  -0.0000000), wk =   0.0000000
        k(   59) = (  -1.7948954   1.0362833   0.0844325), wk =   0.0312500
        k(   60) = (  -0.5982985   3.1088500   0.0844325), wk =   0.0000000
        k(   61) = (   0.0000000  -2.0725667   0.0844325), wk =   0.0312500
        k(   62) = (   1.1965969   0.0000000   0.0844325), wk =   0.0000000
        k(   63) = (   0.0000000   3.1088500  -0.2532974), wk =   0.0312500
        k(   64) = (   1.1965969   5.1814167  -0.2532974), wk =   0.0000000
        k(   65) = (  -2.6923431  -1.5544250  -0.2532974), wk =   0.0312500
        k(   66) = (  -1.4957462   0.5181417  -0.2532974), wk =   0.0000000
        k(   67) = (  -2.6923431  -0.5181417  -0.1688650), wk =   0.0156250
        k(   68) = (  -1.4957462   1.5544250  -0.1688650), wk =   0.0000000
        k(   69) = (   2.6923431  -0.5181417  -0.1688650), wk =   0.0312500
        k(   70) = (   3.8889400   1.5544250  -0.1688650), wk =   0.0000000
        k(   71) = (   2.6923431   0.5181417   0.1688650), wk =   0.0156250
        k(   72) = (   3.8889400   2.5907084   0.1688650), wk =   0.0000000

     Dense  grid:    59333 G-vectors     FFT dimensions: ( 120, 120, 120)

     Estimated max dynamical RAM per process >       5.88 MB

     Estimated total dynamical RAM >       1.47 GB
     Message from routine sym_rho_init:
     some processors have no G-vectors for symmetrization
     Message from routine sym_rho_init:
     some processors have no G-vectors for symmetrization
     Message from routine sym_rho_init:
     some processors have no G-vectors for symmetrization
     Message from routine sym_rho_init:
     some processors have no G-vectors for symmetrization
     Message from routine sym_rho_init:
     some processors have no G-vectors for symmetrization
[...]
     some processors have no G-vectors for symmetrization
     Message from routine sym_rho_init:
     some processors have no G-vectors for symmetrization
     Message from routine sym_rho_init:
     some processors have no G-vectors for symmetrization
     Message from routine sym_rho_init:
     some processors have no G-vectors for symmetrization
     Message from routine sym_rho_init:
     some processors have no G-vectors for symmetrization
     Message from routine sym_rho_init:
     some processors have no G-vectors for symmetrization
     Message from routine sym_rho_init:
     some processors have no G-vectors for symmetrization
     Message from routine sym_rho_init:
     some processors have no G-vectors for symmetrization
     Message from routine sym_rho_init:
     some processors have no G-vectors for symmetrization
     Message from routine sym_rho_init:
     some processors have no G-vectors for symmetrization
     Message from routine sym_rho_init:
     some processors have no G-vectors for symmetrization
     Message from routine sym_rho_init:
     some processors have no G-vectors for symmetrization
     Message from routine sym_rho_init:
     some processors have no G-vectors for symmetrization
     Message from routine sym_rho_init:
     some processors have no G-vectors for symmetrization
     Message from routine sym_rho_init:
     some processors have no G-vectors for symmetrization
     Message from routine sym_rho_init:
     some processors have no G-vectors for symmetrization
     Message from routine sym_rho_init:
     some processors have no G-vectors for symmetrization
     Message from routine sym_rho_init:
     some processors have no G-vectors for symmetrization
     Message from routine sym_rho_init:
     some processors have no G-vectors for symmetrization
     Message from routine sym_rho_init:
     some processors have no G-vectors for symmetrization
     Message from routine sym_rho_init:
     some processors have no G-vectors for symmetrization
     Message from routine sym_rho_init:
     some processors have no G-vectors for symmetrization
     Message from routine sym_rho_init:
     some processors have no G-vectors for symmetrization
     Message from routine sym_rho_init:
     some processors have no G-vectors for symmetrization
     Message from routine sym_rho_init:
     some processors have no G-vectors for symmetrization
     Message from routine sym_rho_init:
     some processors have no G-vectors for symmetrization
     Message from routine sym_rho_init:
     some processors have no G-vectors for symmetrization
     Message from routine sym_rho_init:
     some processors have no G-vectors for symmetrization
     Message from routine sym_rho_init:
     some processors have no G-vectors for symmetrization
     Message from routine sym_rho_init:
     some processors have no G-vectors for symmetrization
     Message from routine sym_rho_init:
     some processors have no G-vectors for symmetrization
     Message from routine sym_rho_init:
     some processors have no G-vectors for symmetrization
     Message from routine sym_rho_init:
     some processors have no G-vectors for symmetrization
     Message from routine sym_rho_init:
     some processors have no G-vectors for symmetrization
     Message from routine sym_rho_init:
     some processors have no G-vectors for symmetrization
     Message from routine sym_rho_init:
     some processors have no G-vectors for symmetrization
     Message from routine sym_rho_init:
     some processors have no G-vectors for symmetrization
     Message from routine sym_rho_init:
     some processors have no G-vectors for symmetrization
     Message from routine sym_rho_init:
     some processors have no G-vectors for symmetrization
     Message from routine sym_rho_init:
     some processors have no G-vectors for symmetrization
     Message from routine sym_rho_init:
     some processors have no G-vectors for symmetrization
     Message from routine sym_rho_init:
     some processors have no G-vectors for symmetrization
     Message from routine sym_rho_init:
     some processors have no G-vectors for symmetrization
     Message from routine sym_rho_init:
     some processors have no G-vectors for symmetrization
     Message from routine sym_rho_init:
     some processors have no G-vectors for symmetrization
     Message from routine sym_rho_init:
     some processors have no G-vectors for symmetrization
     Message from routine sym_rho_init:
     some processors have no G-vectors for symmetrization
     Message from routine sym_rho_init:
     some processors have no G-vectors for symmetrization
     Message from routine sym_rho_init:
     some processors have no G-vectors for symmetrization
     Message from routine sym_rho_init:
     some processors have no G-vectors for symmetrization
     Message from routine sym_rho_init:
     some processors have no G-vectors for symmetrization
     Message from routine sym_rho_init:
     some processors have no G-vectors for symmetrization
     Message from routine sym_rho_init:
     some processors have no G-vectors for symmetrization
     Message from routine sym_rho_init:
     some processors have no G-vectors for symmetrization
     Message from routine sym_rho_init:
     some processors have no G-vectors for symmetrization
     Message from routine sym_rho_init:
     some processors have no G-vectors for symmetrization
     Message from routine sym_rho_init:
     some processors have no G-vectors for symmetrization
     Message from routine sym_rho_init:
     some processors have no G-vectors for symmetrization
     Message from routine sym_rho_init:
     some processors have no G-vectors for symmetrization

     Check: negative core charge=   -0.000024

     The potential is recalculated from file :
     ./tmp/HP/NiI2.save/charge-density


     STARTING HUBBARD OCCUPATIONS:

     =================== HUBBARD OCCUPATIONS ===================
     ------------------------ ATOM    1 ------------------------
     Tr[ns(  1)] (up, down, total) =   4.97059  3.62307  8.59366
     Atomic magnetic moment for atom   1 =   1.34751
     SPIN  1
     eigenvalues:
       0.993  0.993  0.994  0.995  0.995
     eigenvectors (columns):
      -0.000  0.000 -1.000  0.000 -0.000
       0.226  0.378 -0.000  0.760 -0.477
       0.378 -0.226 -0.000 -0.477 -0.760
       0.770 -0.461 -0.000  0.234  0.373
       0.461  0.770 -0.000 -0.373  0.234
     occupation matrix ns (before diag.):
       0.994  0.000  0.000  0.000  0.000
       0.000  0.995  0.000 -0.000 -0.001
       0.000  0.000  0.995 -0.001  0.000
       0.000 -0.000 -0.001  0.994 -0.000
       0.000 -0.001  0.000 -0.000  0.994
     SPIN  2
     eigenvalues:
       0.328  0.328  0.989  0.989  0.989
     eigenvectors (columns):
       0.000  0.000 -0.000  0.000  1.000
      -0.168  0.802  0.328  0.469  0.000
       0.802  0.168  0.469 -0.328  0.000
      -0.560 -0.117  0.672 -0.470  0.000
       0.117 -0.560  0.470  0.672  0.000
     occupation matrix ns (before diag.):
       0.989  0.000  0.000  0.000  0.000
       0.000  0.545  0.000 -0.000  0.310
       0.000  0.000  0.545  0.310  0.000
       0.000 -0.000  0.310  0.772 -0.000
       0.000  0.310  0.000 -0.000  0.772
     ------------------------ ATOM    2 ------------------------
     Tr[ns(  2)] (up, down, total) =   3.57734  4.97402  8.55136
     Atomic magnetic moment for atom   2 =  -1.39668
     SPIN  1
     eigenvalues:
       0.303  0.303  0.990  0.990  0.991
     eigenvectors (columns):
       0.000  0.000 -0.000  0.000  1.000
      -0.164  0.803  0.329  0.470  0.000
       0.803  0.164  0.470 -0.329  0.000
      -0.562 -0.115  0.671 -0.470  0.000
       0.115 -0.562  0.470  0.671  0.000
     occupation matrix ns (before diag.):
       0.991  0.000  0.000  0.000  0.000
       0.000  0.529  0.000 -0.000  0.323
       0.000  0.000  0.529  0.323  0.000
       0.000 -0.000  0.323  0.764 -0.000
       0.000  0.323  0.000 -0.000  0.764
     SPIN  2
     eigenvalues:
       0.994  0.994  0.994  0.996  0.996
     eigenvectors (columns):
      -0.000  0.000 -1.000  0.000 -0.000
       0.226  0.378 -0.000  0.760 -0.477
       0.378 -0.226 -0.000 -0.477 -0.760
       0.770 -0.461 -0.000  0.234  0.374
       0.461  0.770 -0.000 -0.374  0.234
     occupation matrix ns (before diag.):
       0.994  0.000  0.000  0.000  0.000
       0.000  0.995  0.000 -0.000 -0.001
       0.000  0.000  0.995 -0.001  0.000
       0.000 -0.000 -0.001  0.994 -0.000
       0.000 -0.001  0.000 -0.000  0.994

     Number of occupied Hubbard levels =   17.1450

     Atomic wfc used for Hubbard projectors are orthogonalized

     Starting wfcs are   36 atomic wfcs

     Band Structure Calculation
     Davidson diagonalization with overlap

     ethr =  1.00E-11,  avg # of iterations = 18.5

     total cpu time spent up to now is       -1.0 secs

     End of band structure calculation

     Number of k-points >= 100: set verbosity='high' to print the bands.

     highest occupied level (ev):     4.9495

     Writing all to output data dir ./tmp/HP/NiI2.save/ :
     XML data file, pseudopotentials, collected wavefunctions
     Done!

                   WRITING LINEAR-RESPONSE SUMMARY:




     Number of symmetries in the small group of q, nsymq =  2

     G cutoff = 3575.4600  (    233 G-vectors)     FFT grid: (120,120,120)

     Number of k (and k+q if q/=0) points =   160


     Atomic wfc used for the projector on the Hubbard manifold are orthogonalized

     Total time spent up to now is:
     HP           :      1h46m CPU      1h48m WALL

      =--------------------------------------------=
                 SOLVE THE LINEAR SYSTEM
      =--------------------------------------------=

      atom #  2   q point #   6   iter #   1
      chi:   1   0.0000604947
      chi:   2  -0.2721648354
      Average number of iter. to solve lin. system:   50.7
      Total CPU time :  6598.1 s

      atom #  2   q point #   6   iter #   2
      chi:   1   0.0007890771   residue:    0.0007285824
      chi:   2   0.0590749445   residue:    0.3312397799
      Average number of iter. to solve lin. system:   27.0
      Total CPU time :  6652.3 s

      atom #  2   q point #   6   iter #   3
      chi:   1  -0.0011244449   residue:    0.0019135219
      chi:   2  -0.0918430061   residue:    0.1509179506
      Average number of iter. to solve lin. system:   25.4
      Total CPU time :  6703.4 s

      atom #  2   q point #   6   iter #   4
      chi:   1   0.0014865572   residue:    0.0026110021
      chi:   2  -0.1078413011   residue:    0.0159982950
      Average number of iter. to solve lin. system:   27.3
      Total CPU time :  6757.7 s

      atom #  2   q point #   6   iter #   5
      chi:   1  -0.0010356461   residue:    0.0025222034
      chi:   2  -0.1088047674   residue:    0.0009634663
      Average number of iter. to solve lin. system:   28.6
      Total CPU time :  6815.4 s

      atom #  2   q point #   6   iter #   6
      chi:   1   0.0002529057   residue:    0.0012885518
      chi:   2  -0.1091008131   residue:    0.0002960457
      Average number of iter. to solve lin. system:   28.4
      Total CPU time :  6872.0 s

      atom #  2   q point #   6   iter #   7
      chi:   1  -0.0001166393   residue:    0.0003695450
      chi:   2  -0.1092609080   residue:    0.0001600948
      Average number of iter. to solve lin. system:   28.3
      Total CPU time :  6928.4 s

      atom #  2   q point #   6   iter #   8
      chi:   1   0.0000769163   residue:    0.0001935556
      chi:   2  -0.1094392808   residue:    0.0001783728
      Average number of iter. to solve lin. system:   29.4
      Total CPU time :  6986.9 s

      atom #  2   q point #   6   iter #   9
      chi:   1  -0.0000507418   residue:    0.0001276581
      chi:   2  -0.1096378552   residue:    0.0001985743
      Average number of iter. to solve lin. system:   29.3
      Total CPU time :  7045.3 s

      atom #  2   q point #   6   iter #  10
      chi:   1  -0.0000078810   residue:    0.0000428608
      chi:   2  -0.1096885968   residue:    0.0000507416
      Average number of iter. to solve lin. system:   29.8
      Total CPU time :  7104.6 s

      atom #  2   q point #   6   iter #  11
      chi:   1  -0.0000144133   residue:    0.0000065323
      chi:   2  -0.1097013295   residue:    0.0000127327
      Average number of iter. to solve lin. system:   29.4
      Total CPU time :  7163.0 s

      atom #  2   q point #   6   iter #  12
      chi:   1  -0.0000104947   residue:    0.0000039186
      chi:   2  -0.1096968008   residue:    0.0000045288
      Average number of iter. to solve lin. system:   29.2
      Total CPU time :  7221.0 s
      
      =--------------------------------------------=
             CONVERGENCE HAS BEEN REACHED
      =--------------------------------------------=

     Computing the sum over q of the response occupation matrices...

     q #   1 =  0.000000000   0.000000000   0.000000000

     Number of q in the star =    1
     List of q in the star:
          1   0.000000000   0.000000000   0.000000000

     q #   2 = -1.196596931  -0.690855560   0.112576642

     Number of q in the star =    6
     List of q in the star:
          1  -1.196596931  -0.690855560   0.112576642
          2  -0.000000000   1.381711120   0.112576642
          3   1.196596931  -0.690855560   0.112576642
          4   1.196596931   0.690855560  -0.112576642
          5  -1.196596931   0.690855560  -0.112576642
          6   0.000000000  -1.381711120  -0.112576642

     q #   3 = -1.196596931   0.690855560   0.225153283

     Number of q in the star =    6
     List of q in the star:
          1  -1.196596931   0.690855560   0.225153283
          2   1.196596931   0.690855560   0.225153283
          3   0.000000000  -1.381711120   0.225153283
          4   1.196596931  -0.690855560  -0.225153283
          5  -0.000000000   1.381711120  -0.225153283
          6  -1.196596931  -0.690855560  -0.225153283

     q #   4 =  1.196596931   2.072566681   0.000000000

     Number of q in the star =    6
     List of q in the star:
          1   1.196596931   2.072566681   0.000000000
          2   1.196596931  -2.072566681  -0.000000000
          3   2.393193862   0.000000000  -0.000000000
          4  -1.196596931   2.072566681   0.000000000
          5  -2.393193862   0.000000000  -0.000000000
          6  -1.196596931  -2.072566681  -0.000000000

     q #   5 =  0.000000000  -0.000000000   0.337729925

     Number of q in the star =    2
     List of q in the star:
          1   0.000000000  -0.000000000   0.337729925
          2  -0.000000000   0.000000000  -0.337729925

     q #   6 =  2.393193862   1.381711120   0.112576642

     Number of q in the star =    6
     List of q in the star:
          1   2.393193862   1.381711120   0.112576642
          2   0.000000000  -2.763422241   0.112576642
          3  -2.393193862   1.381711120   0.112576642
          4  -2.393193862  -1.381711120  -0.112576642
          5   2.393193862  -1.381711120  -0.112576642
          6  -0.000000000   2.763422241  -0.112576642

     Post-processing calculation of Hubbard parameters ...


     PRINTING TIMING FROM PWSCF ROUTINES: 

     init_run     :     10.17s CPU     10.45s WALL (      10 calls)
     electrons    :    532.63s CPU    538.44s WALL (      10 calls)

     Called by init_run:
     wfcinit      :      3.54s CPU      3.66s WALL (      10 calls)
     wfcinit:atom :      0.04s CPU      0.05s WALL (    1408 calls)
     wfcinit:wfcr :     36.72s CPU     37.59s WALL (    1408 calls)
     potinit      :      0.43s CPU      0.44s WALL (      10 calls)
     hinit0       :      0.05s CPU      0.05s WALL (      10 calls)

     Called by electrons:
     c_bands      :    532.63s CPU    538.43s WALL (      10 calls)
     v_of_rho     :      0.32s CPU      0.32s WALL (      12 calls)
     v_h          :      0.01s CPU      0.01s WALL (      12 calls)
     v_xc         :      0.30s CPU      0.31s WALL (      12 calls)

     Called by c_bands:
     init_us_2    :      0.70s CPU      0.71s WALL (   11628 calls)
     cegterg      :    494.88s CPU    499.16s WALL (    1408 calls)

     Called by sum_band:

     Called by *egterg:
     cdiaghg      :    109.12s CPU    109.87s WALL (   27300 calls)
     cegterg:over :      7.62s CPU      7.72s WALL (   25892 calls)
     cegterg:upda :      1.06s CPU      1.07s WALL (   25892 calls)
     cegterg:last :      0.58s CPU      0.58s WALL (    5648 calls)
     h_psi        :   6122.30s CPU   6193.55s WALL (  472100 calls)
     g_psi        :      0.09s CPU      0.09s WALL (   25892 calls)

     Called by h_psi:
     h_psi:calbec :     86.94s CPU     87.91s WALL (  472100 calls)
     vloc_psi     :   5962.63s CPU   6032.07s WALL (  472100 calls)
                                        0.00s GPU  (  472100 calls)
     add_vuspsi   :     24.62s CPU     24.95s WALL (  472100 calls)
     vhpsi        :     45.02s CPU     45.56s WALL (  472100 calls)

     General routines
     calbec       :    127.49s CPU    129.23s WALL (  945608 calls)
     fft          :     20.88s CPU     20.99s WALL (    3240 calls)
     fftw         :   6003.77s CPU   6072.63s WALL (19145254 calls)
     davcio       :      4.76s CPU      5.53s WALL (  534548 calls)

     Parallel routines
     fft_scatt_xy :    426.59s CPU    431.12s WALL (19148494 calls)
     fft_scatt_yz :   4155.82s CPU   4207.43s WALL (19148494 calls)

     Hubbard U routines
     vhpsi        :     45.02s CPU     45.56s WALL (  472100 calls)

     init_vloc    :      0.01s CPU      0.01s WALL (      12 calls)
     init_us_1    :      0.00s CPU      0.00s WALL (      12 calls)
     add_vuspsi   :     24.62s CPU     24.95s WALL (  472100 calls)

     PRINTING TIMING FROM HP ROUTINES: 

     hp_setup_q   :      1.26s CPU      6.73s WALL (      12 calls)
     hp_init_q    :     12.36s CPU     13.76s WALL (      12 calls)
     hp_solve_lin :   6331.16s CPU   6413.47s WALL (      12 calls)
     hp_dvpsi_per :      0.16s CPU      0.19s WALL (     756 calls)
     hp_dnsq      :      1.96s CPU      2.20s WALL (     140 calls)
     hp_symdnsq   :      0.01s CPU      0.01s WALL (     140 calls)
     hp_dnstot_su :      0.00s CPU      0.00s WALL (       2 calls)
     hp_rotate_dn :      0.00s CPU      0.00s WALL (      84 calls)
     hp_calc_chi  :      0.00s CPU      0.00s WALL (       2 calls)
     hp_postproc  :      0.00s CPU      0.00s WALL (       1 calls)
     hp_run_nscf  :    746.48s CPU    769.28s WALL (      10 calls)
     hp_postproc  :      0.00s CPU      0.00s WALL (       1 calls)
     hp_psymdvscf :    111.33s CPU    118.87s WALL (     140 calls)

     PRINTING TIMING FROM LR MODULE: 

     sth_kernel   :   6195.21s CPU   6268.64s WALL (     140 calls)
     apply_dpot_b :    171.85s CPU    174.39s WALL (    8056 calls)
     ortho        :      1.46s CPU      1.48s WALL (    8812 calls)
     cgsolve      :   5818.55s CPU   5886.90s WALL (    8812 calls)
     ch_psi       :   5765.81s CPU   5833.39s WALL (  443392 calls)
     incdrhoscf   :    199.04s CPU    201.36s WALL (    8812 calls)
                                        0.00s GPU  (    8812 calls)
     dv_of_drho   :     21.33s CPU     21.40s WALL (     140 calls)
     mix_pot      :      1.01s CPU      1.95s WALL (     140 calls)
     setup_dgc    :      1.00s CPU      1.02s WALL (      12 calls)
     setup_dmuxc  :      0.25s CPU      0.25s WALL (      12 calls)
     setup_nbnd_o :      0.00s CPU      0.00s WALL (      12 calls)
     lr_orthoUwfc :     12.35s CPU     13.75s WALL (      12 calls)
     cft_wave     :    165.82s CPU    168.15s WALL (  515584 calls)

     HP           :      1h58m CPU      2h 0m WALL


   This run was terminated on:  18: 6:38   5Mar2026            

=------------------------------------------------------------------------------=
   JOB DONE.
=------------------------------------------------------------------------------=
