
     Program PWSCF v.7.5 starts on 20Feb2026 at  9:18:37 
        Git branch: HEAD
        Last git commit: 770a0b2d12928a67048e2f3da8d10d057e52179e
        Last git commit date: Tue Aug 19 09:57:12 2025 +0000
        Last git commit subject: Merge branch 'QE-7.5-RC' into 'master'

     This program is part of the open-source Quantum ESPRESSO suite
     for quantum simulation of materials; please cite
         "P. Giannozzi et al., J. Phys.:Condens. Matter 21 395502 (2009);
         "P. Giannozzi et al., J. Phys.:Condens. Matter 29 465901 (2017);
         "P. Giannozzi et al., J. Chem. Phys. 152 154105 (2020);
          URL http://www.quantum-espresso.org", 
     in publications or presentations arising from this work. More details at
     http://www.quantum-espresso.org/quote

     Parallel version (MPI), running on   256 processors

     MPI processes distributed on     8 nodes
     240414 MiB available memory on the printing compute node when the environment starts

     Waiting for input...
     Reading input from standard input

     Current dimensions of program PWSCF are:
     Max number of different atomic species (ntypx) = 10
     Max number of k-points (npk) =  40000
     Max angular momentum in pseudopotentials (lmaxx) =  4

     K-points division:     npool     =       8
     R & G space division:  proc/nbgrp/npool/nimage =      32
     Subspace diagonalization in iterative solution of the eigenvalue problem:
     a serial algorithm will be used


     Parallelization info
     --------------------
     sticks:   dense  smooth     PW     G-vecs:    dense   smooth      PW
     Min          96      96     29                 1853     1853     311
     Max          97      97     30                 1855     1855     313
     Sum        3099    3099    945                59333    59333    9983

     Using Slab Decomposition



     bravais-lattice index     =            5
     lattice parameter (alat)  =      26.8360  a.u.
     unit-cell volume          =    1281.9023 (a.u.)^3
     number of atoms/cell      =            6
     number of atomic types    =            3
     number of electrons       =        64.00 (up:  32.00, down:  32.00)
     number of Kohn-Sham states=           32
     kinetic-energy cutoff     =      49.0000  Ry
     charge density cutoff     =     196.0000  Ry
     scf convergence threshold =      1.0E-10
     mixing beta               =       0.2000
     number of iterations used =            8  plain     mixing
     Exchange-correlation= PBESOL
                           (   1   4  10   8   0   0   0)
     Hubbard projectors: ortho-atomic
     Hubbard parameters of DFT+U (Dudarev formulation) in eV:
     U(Ni1-3d) =  5.4885
     U(Ni2-3d) =  6.4885

     Internal variables: lda_plus_u =T, lda_plus_u_kind = 0

     Internal variables: orbital_resolved =F, hub_pot_fix =F, apply_U = F

     celldm(1)=  26.836001  celldm(2)=   0.000000  celldm(3)=   0.000000
     celldm(4)=   0.961200  celldm(5)=   0.000000  celldm(6)=   0.000000

     crystal axes: (cart. coord. in units of alat)
               a(1) = (   0.139284  -0.080416   0.986982 )  
               a(2) = (   0.000000   0.160831   0.986982 )  
               a(3) = (  -0.139284  -0.080416   0.986982 )  

     reciprocal axes: (cart. coord. in units 2 pi/alat)
               b(1) = (  3.589791 -2.072567  0.337730 )  
               b(2) = (  0.000000  4.145133  0.337730 )  
               b(3) = ( -3.589791 -2.072567  0.337730 )  


     PseudoPot. # 1 for Ni read from file:
     ./Pseudos/Ni_pbesol.upf
     MD5 check sum: 3ec56ad6bf78c9cc1bbec815420e1c7d
     Pseudo is Norm-conserving + core correction, Zval = 18.0
     Generated using ONCVPSP code by D. R. Hamann
     Using radial grid of 1356 points,  6 beta functions with: 
                l(1) =   0
                l(2) =   0
                l(3) =   1
                l(4) =   1
                l(5) =   2
                l(6) =   2

     PseudoPot. # 2 for Ni read from file:
     ./Pseudos/Ni_pbesol.upf
     MD5 check sum: 3ec56ad6bf78c9cc1bbec815420e1c7d
     Pseudo is Norm-conserving + core correction, Zval = 18.0
     Generated using ONCVPSP code by D. R. Hamann
     Using radial grid of 1356 points,  6 beta functions with: 
                l(1) =   0
                l(2) =   0
                l(3) =   1
                l(4) =   1
                l(5) =   2
                l(6) =   2

     PseudoPot. # 3 for I  read from file:
     ./Pseudos/I_pbesol.upf
     MD5 check sum: 80ed5ceb2eb9c553cfb6760a299d9c5b
     Pseudo is Norm-conserving + core correction, Zval =  7.0
     Generated using ONCVPSP code by D. R. Hamann
     Using radial grid of 1182 points,  6 beta functions with: 
                l(1) =   0
                l(2) =   0
                l(3) =   1
                l(4) =   1
                l(5) =   2
                l(6) =   2

     atomic species   valence    mass     pseudopotential
     Ni1              18.00    58.69340     Ni( 1.00)
     Ni2              18.00    58.69340     Ni( 1.00)
     I                 7.00   126.90447     I ( 1.00)

     Starting magnetic structure 
     atomic species   magnetization
     Ni1             0.600
     Ni2            -0.600
     I               0.000

     12 Sym. Ops., with inversion, found


                                    s                        frac. trans.

      isym =  1     identity                                     

 cryst.   s( 1) = (     1          0          0      )
                  (     0          1          0      )
                  (     0          0          1      )

 cart.    s( 1) = (  1.0000000  0.0000000  0.0000000 )
                  (  0.0000000  1.0000000  0.0000000 )
                  ( -0.0000000 -0.0000000  1.0000000 )


      isym =  2     180 deg rotation - cart. axis [1,0,0]        

 cryst.   s( 2) = (     0          0         -1      )
                  (     0         -1          0      )
                  (    -1          0          0      )

 cart.    s( 2) = (  1.0000000 -0.0000000 -0.0000000 )
                  (  0.0000000 -1.0000000 -0.0000000 )
                  ( -0.0000000  0.0000000 -1.0000000 )


      isym =  3     120 deg rotation - cryst. axis [0,0,1]       

 cryst.   s( 3) = (     0          1          0      )
                  (     0          0          1      )
                  (     1          0          0      )

 cart.    s( 3) = ( -0.5000000 -0.8660254 -0.0000000 )
                  (  0.8660254 -0.5000000 -0.0000000 )
                  (  0.0000000  0.0000000  1.0000000 )


      isym =  4     120 deg rotation - cryst. axis [0,0,-1]      

 cryst.   s( 4) = (     0          0          1      )
                  (     1          0          0      )
                  (     0          1          0      )

 cart.    s( 4) = ( -0.5000000  0.8660254  0.0000000 )
                  ( -0.8660254 -0.5000000 -0.0000000 )
                  (  0.0000000 -0.0000000  1.0000000 )


      isym =  5     180 deg rotation - cryst. axis [0,1,0]       

 cryst.   s( 5) = (     0         -1          0      )
                  (    -1          0          0      )
                  (     0          0         -1      )

 cart.    s( 5) = ( -0.5000000 -0.8660254 -0.0000000 )
                  ( -0.8660254  0.5000000  0.0000000 )
                  (  0.0000000  0.0000000 -1.0000000 )


      isym =  6     180 deg rotation - cryst. axis [1,1,0]       

 cryst.   s( 6) = (    -1          0          0      )
                  (     0          0         -1      )
                  (     0         -1          0      )

 cart.    s( 6) = ( -0.5000000  0.8660254  0.0000000 )
                  (  0.8660254  0.5000000  0.0000000 )
                  ( -0.0000000 -0.0000000 -1.0000000 )


      isym =  7     inversion                                    

 cryst.   s( 7) = (    -1          0          0      )
                  (     0         -1          0      )
                  (     0          0         -1      )

 cart.    s( 7) = ( -1.0000000 -0.0000000 -0.0000000 )
                  ( -0.0000000 -1.0000000 -0.0000000 )
                  (  0.0000000  0.0000000 -1.0000000 )


      isym =  8     inv. 180 deg rotation - cart. axis [1,0,0]   

 cryst.   s( 8) = (     0          0          1      )
                  (     0          1          0      )
                  (     1          0          0      )

 cart.    s( 8) = ( -1.0000000  0.0000000  0.0000000 )
                  ( -0.0000000  1.0000000  0.0000000 )
                  (  0.0000000 -0.0000000  1.0000000 )


      isym =  9     inv. 120 deg rotation - cryst. axis [0,0,1]  

 cryst.   s( 9) = (     0         -1          0      )
                  (     0          0         -1      )
                  (    -1          0          0      )

 cart.    s( 9) = (  0.5000000  0.8660254  0.0000000 )
                  ( -0.8660254  0.5000000  0.0000000 )
                  ( -0.0000000 -0.0000000 -1.0000000 )


      isym = 10     inv. 120 deg rotation - cryst. axis [0,0,-1] 

 cryst.   s(10) = (     0          0         -1      )
                  (    -1          0          0      )
                  (     0         -1          0      )

 cart.    s(10) = (  0.5000000 -0.8660254 -0.0000000 )
                  (  0.8660254  0.5000000  0.0000000 )
                  ( -0.0000000  0.0000000 -1.0000000 )


      isym = 11     inv. 180 deg rotation - cryst. axis [0,1,0]  

 cryst.   s(11) = (     0          1          0      )
                  (     1          0          0      )
                  (     0          0          1      )

 cart.    s(11) = (  0.5000000  0.8660254  0.0000000 )
                  (  0.8660254 -0.5000000 -0.0000000 )
                  ( -0.0000000 -0.0000000  1.0000000 )


      isym = 12     inv. 180 deg rotation - cryst. axis [1,1,0]  

 cryst.   s(12) = (     1          0          0      )
                  (     0          0          1      )
                  (     0          1          0      )

 cart.    s(12) = (  0.5000000 -0.8660254 -0.0000000 )
                  ( -0.8660254 -0.5000000 -0.0000000 )
                  (  0.0000000  0.0000000  1.0000000 )


     point group D_3d (-3m) 
     there are  6 classes
     the character table:

       E     2C3   3C2'  i     2S6   3s_d 
A_1g   1.00  1.00  1.00  1.00  1.00  1.00
A_2g   1.00  1.00 -1.00  1.00  1.00 -1.00
E_g    2.00 -1.00  0.00  2.00 -1.00  0.00
A_1u   1.00  1.00  1.00 -1.00 -1.00 -1.00
A_2u   1.00  1.00 -1.00 -1.00 -1.00  1.00
E_u    2.00 -1.00  0.00 -2.00  1.00  0.00

     the symmetry operations in each class and the name of the first element:

     E        1
          identity                                               
     2C3      3    4
          120 deg rotation - cryst. axis [0,0,1]                 
     3C2'     2    5    6
          180 deg rotation - cart. axis [1,0,0]                  
     i        7
          inversion                                              
     2S6      9   10
          inv. 120 deg rotation - cryst. axis [0,0,1]            
     3s_d     8   11   12
          inv. 180 deg rotation - cart. axis [1,0,0]             

   Cartesian axes

     site n.     atom                  positions (alat units)
         1        Ni1    tau(   1) = (   0.0000000   0.0000000   0.0000000  )
         2        Ni2    tau(   2) = (   0.1392839   0.0804156   0.4934910  )
         3        I      tau(   3) = (  -0.0000000  -0.0000000   0.3856062  )
         4        I      tau(   4) = (   0.1392839   0.0804156   0.8790972  )
         5        I      tau(   5) = (   0.1392839   0.0804156   0.1078847  )
         6        I      tau(   6) = (   0.1392839  -0.0804156   0.6013757  )

   Crystallographic axes

     site n.     atom                  positions (cryst. coord.)
         1        Ni1    tau(   1) = (  0.0000000  0.0000000  0.0000000  )
         2        Ni2    tau(   2) = (  0.5000000  0.5000000 -0.5000000  )
         3        I      tau(   3) = (  0.1302308  0.1302308  0.1302308  )
         4        I      tau(   4) = (  0.6302308  0.6302308 -0.3697692  )
         5        I      tau(   5) = (  0.3697692  0.3697692 -0.6302308  )
         6        I      tau(   6) = (  0.8697692 -0.1302308 -0.1302308  )

     number of k points=    13
                       cart. coord. in units 2pi/alat
        k(    1) = (   0.0000000   0.0000000   0.0000000), wk =   0.0156250
        k(    2) = (  -0.8974477  -0.5181417   0.0844325), wk =   0.0937500
        k(    3) = (   1.7948954   1.0362833  -0.1688650), wk =   0.0468750
        k(    4) = (  -0.8974477   0.5181417   0.1688650), wk =   0.0937500
        k(    5) = (   1.7948954   2.0725667  -0.0844325), wk =   0.1875000
        k(    6) = (   0.8974477   1.5544250   0.0000000), wk =   0.0937500
        k(    7) = (   1.7948954  -1.0362833  -0.3377299), wk =   0.0468750
        k(    8) = (   0.0000000   0.0000000   0.2532974), wk =   0.0312500
        k(    9) = (   2.6923431   1.5544250   0.0000000), wk =   0.0937500
        k(   10) = (   1.7948954   1.0362833   0.0844325), wk =   0.0937500
        k(   11) = (   2.6923431  -1.5544250  -0.2532974), wk =   0.0937500
        k(   12) = (   1.7948954  -2.0725667  -0.1688650), wk =   0.0937500
        k(   13) = (   0.0000000   0.0000000  -0.5065949), wk =   0.0156250

                       cryst. coord.
        k(    1) = (   0.0000000   0.0000000   0.0000000), wk =   0.0156250
        k(    2) = (  -0.0000000  -0.0000000   0.2500000), wk =   0.0937500
        k(    3) = (   0.0000000   0.0000000  -0.5000000), wk =   0.0468750
        k(    4) = (  -0.0000000   0.2500000   0.2500000), wk =   0.0937500
        k(    5) = (  -0.0000000   0.2500000  -0.5000000), wk =   0.1875000
        k(    6) = (  -0.0000000   0.2500000  -0.2500000), wk =   0.0937500
        k(    7) = (   0.0000000  -0.5000000  -0.5000000), wk =   0.0468750
        k(    8) = (   0.2500000   0.2500000   0.2500000), wk =   0.0312500
        k(    9) = (   0.2500000   0.2500000  -0.5000000), wk =   0.0937500
        k(   10) = (   0.2500000   0.2500000  -0.2500000), wk =   0.0937500
        k(   11) = (   0.2500000  -0.5000000  -0.5000000), wk =   0.0937500
        k(   12) = (   0.2500000  -0.5000000  -0.2500000), wk =   0.0937500
        k(   13) = (  -0.5000000  -0.5000000  -0.5000000), wk =   0.0156250

     Dense  grid:    59333 G-vectors     FFT dimensions: ( 120, 120, 120)

     Dynamical RAM for                 wfc:       0.11 MB

     Dynamical RAM for     wfc (w. buffer):       0.57 MB

     Dynamical RAM for             U proj.:       0.04 MB

     Dynamical RAM for  U proj. (w. buff.):       0.18 MB

     Dynamical RAM for           str. fact:       0.08 MB

     Dynamical RAM for           local pot:       0.00 MB

     Dynamical RAM for          nlocal pot:       0.38 MB

     Dynamical RAM for                qrad:       3.37 MB

     Dynamical RAM for          rho,v,vnew:       2.81 MB

     Dynamical RAM for               rhoin:       0.94 MB

     Dynamical RAM for            rho*nmix:       0.91 MB

     Dynamical RAM for           G-vectors:       0.12 MB

     Dynamical RAM for          h,s,v(r/c):       0.19 MB

     Dynamical RAM for          <psi|beta>:       0.05 MB

     Dynamical RAM for                 psi:       0.23 MB

     Dynamical RAM for                hpsi:       0.23 MB

     Dynamical RAM for      wfcinit/wfcrot:       0.25 MB

     Estimated static dynamical RAM per process >      11.20 MB

     Estimated max dynamical RAM per process >      12.80 MB

     Estimated total dynamical RAM >       3.00 GB

     Check: negative core charge=   -0.000024
     Generating pointlists ...
     new r_m :   0.0799 (alat units)  2.1438 (a.u.) for type    1
     new r_m :   0.0799 (alat units)  2.1438 (a.u.) for type    2
     new r_m :   0.0799 (alat units)  2.1438 (a.u.) for type    3

     Initial potential from superposition of free atoms

     starting charge      63.9993, renormalised to      64.0000

     HUBBARD ENERGY =    0.5282  (Ry)

     STARTING HUBBARD OCCUPATIONS:

     =================== HUBBARD OCCUPATIONS ===================
     ------------------------ ATOM    1 ------------------------
     Tr[ns(  1)] (up, down, total) =   5.00000  3.00000  8.00000
     Atomic magnetic moment for atom   1 =   2.00000
     SPIN  1
     eigenvalues:
       1.000  1.000  1.000  1.000  1.000
     eigenvectors (columns):
       1.000  0.000  0.000  0.000  0.000
       0.000  1.000  0.000  0.000  0.000
       0.000  0.000  1.000  0.000  0.000
       0.000  0.000  0.000  1.000  0.000
       0.000  0.000  0.000  0.000  1.000
     occupation matrix ns (before diag.):
       1.000  0.000  0.000  0.000  0.000
       0.000  1.000  0.000  0.000  0.000
       0.000  0.000  1.000  0.000  0.000
       0.000  0.000  0.000  1.000  0.000
       0.000  0.000  0.000  0.000  1.000
     SPIN  2
     eigenvalues:
       0.600  0.600  0.600  0.600  0.600
     eigenvectors (columns):
       1.000  0.000  0.000  0.000  0.000
       0.000  1.000  0.000  0.000  0.000
       0.000  0.000  1.000  0.000  0.000
       0.000  0.000  0.000  1.000  0.000
       0.000  0.000  0.000  0.000  1.000
     occupation matrix ns (before diag.):
       0.600  0.000  0.000  0.000  0.000
       0.000  0.600  0.000  0.000  0.000
       0.000  0.000  0.600  0.000  0.000
       0.000  0.000  0.000  0.600  0.000
       0.000  0.000  0.000  0.000  0.600
     ------------------------ ATOM    2 ------------------------
     Tr[ns(  2)] (up, down, total) =   3.00000  5.00000  8.00000
     Atomic magnetic moment for atom   2 =  -2.00000
     SPIN  1
     eigenvalues:
       0.600  0.600  0.600  0.600  0.600
     eigenvectors (columns):
       1.000  0.000  0.000  0.000  0.000
       0.000  1.000  0.000  0.000  0.000
       0.000  0.000  1.000  0.000  0.000
       0.000  0.000  0.000  1.000  0.000
       0.000  0.000  0.000  0.000  1.000
     occupation matrix ns (before diag.):
       0.600  0.000  0.000  0.000  0.000
       0.000  0.600  0.000  0.000  0.000
       0.000  0.000  0.600  0.000  0.000
       0.000  0.000  0.000  0.600  0.000
       0.000  0.000  0.000  0.000  0.600
     SPIN  2
     eigenvalues:
       1.000  1.000  1.000  1.000  1.000
     eigenvectors (columns):
       1.000  0.000  0.000  0.000  0.000
       0.000  1.000  0.000  0.000  0.000
       0.000  0.000  1.000  0.000  0.000
       0.000  0.000  0.000  1.000  0.000
       0.000  0.000  0.000  0.000  1.000
     occupation matrix ns (before diag.):
       1.000  0.000  0.000  0.000  0.000
       0.000  1.000  0.000  0.000  0.000
       0.000  0.000  1.000  0.000  0.000
       0.000  0.000  0.000  1.000  0.000
       0.000  0.000  0.000  0.000  1.000

     Number of occupied Hubbard levels =   16.0000

     Atomic wfc used for Hubbard projectors are orthogonalized

     Starting wfcs are   36 randomized atomic wfcs

     total cpu time spent up to now is       20.2 secs

     per-process dynamical memory:    70.3 Mb

     Self-consistent Calculation

     iteration #  1     ecut=    49.00 Ry     beta= 0.20
     Davidson diagonalization with overlap

---- Real-time Memory Report at c_bands before calling an iterative solver
            93 MiB given to the printing process from OS
            68 MiB allocation reported by mallinfo(arena+hblkhd)
        239719 MiB available memory on the node where the printing process lives
------------------
     ethr =  1.00E-02,  avg # of iterations =  3.3

     =================== HUBBARD OCCUPATIONS ===================
     ------------------------ ATOM    1 ------------------------
     Tr[ns(  1)] (up, down, total) =   4.98877  1.94535  6.93412
     Atomic magnetic moment for atom   1 =   3.04342
     SPIN  1
     eigenvalues:
       0.998  0.998  0.998  0.998  0.998
     eigenvectors (columns):
      -0.000 -0.000  0.000  0.000 -1.000
      -0.042 -0.776 -0.383  0.499 -0.000
      -0.776  0.042 -0.499 -0.383 -0.000
       0.628 -0.034 -0.617 -0.473 -0.000
       0.034  0.628 -0.473  0.617 -0.000
     occupation matrix ns (before diag.):
       0.998  0.000  0.000  0.000  0.000
       0.000  0.998  0.000 -0.000  0.000
       0.000  0.000  0.998  0.000  0.000
       0.000 -0.000  0.000  0.998 -0.000
       0.000  0.000  0.000 -0.000  0.998
     SPIN  2
     eigenvalues:
       0.121  0.121  0.536  0.536  0.632
     eigenvectors (columns):
      -0.000  0.000 -0.000 -0.000  1.000
      -0.818 -0.167  0.334 -0.437  0.000
      -0.167  0.818  0.437  0.334  0.000
       0.110 -0.539  0.664  0.507  0.000
       0.539  0.110  0.507 -0.664  0.000
     occupation matrix ns (before diag.):
       0.632  0.000  0.000  0.000  0.000
       0.000  0.247  0.000 -0.000  0.190
       0.000  0.000  0.247  0.190  0.000
       0.000 -0.000  0.190  0.410 -0.000
       0.000  0.190  0.000 -0.000  0.410
     ------------------------ ATOM    2 ------------------------
     Tr[ns(  2)] (up, down, total) =   1.96915  4.98907  6.95822
     Atomic magnetic moment for atom   2 =  -3.01993
     SPIN  1
     eigenvalues:
       0.126  0.126  0.539  0.539  0.638
     eigenvectors (columns):
      -0.000  0.000 -0.000 -0.000  1.000
      -0.822 -0.173  0.329 -0.432  0.000
      -0.173  0.822  0.432  0.329  0.000
       0.112 -0.532  0.668  0.509  0.000
       0.532  0.112  0.509 -0.668  0.000
     occupation matrix ns (before diag.):
       0.638  0.000  0.000  0.000  0.000
       0.000  0.248  0.000 -0.000  0.188
       0.000  0.000  0.248  0.188  0.000
       0.000 -0.000  0.188  0.417 -0.000
       0.000  0.188  0.000 -0.000  0.417
     SPIN  2
     eigenvalues:
       0.998  0.998  0.998  0.998  0.998
     eigenvectors (columns):
       0.000 -0.000  0.000  0.000  1.000
       0.076 -0.760 -0.401  0.505  0.000
       0.760  0.076 -0.505 -0.401  0.000
      -0.642 -0.064 -0.599 -0.475  0.000
      -0.064  0.642 -0.475  0.599  0.000
     occupation matrix ns (before diag.):
       0.998  0.000  0.000  0.000  0.000
       0.000  0.998  0.000 -0.000  0.000
       0.000  0.000  0.998  0.000  0.000
       0.000 -0.000  0.000  0.998 -0.000
       0.000  0.000  0.000 -0.000  0.998

     Number of occupied Hubbard levels =   13.8923

     HUBBARD ENERGY =    0.4212  (Ry)

     total cpu time spent up to now is       21.2 secs

     total energy              =    -767.49832635 Ry
     estimated scf accuracy    <       7.35933120 Ry

     total magnetization       =     0.00 Bohr mag/cell
     absolute magnetization    =     7.98 Bohr mag/cell

     iteration #  2     ecut=    49.00 Ry     beta= 0.20
     Davidson diagonalization with overlap

---- Real-time Memory Report at c_bands before calling an iterative solver
           108 MiB given to the printing process from OS
            71 MiB allocation reported by mallinfo(arena+hblkhd)
        238972 MiB available memory on the node where the printing process lives
------------------
     ethr =  1.00E-02,  avg # of iterations =  2.0

     =================== HUBBARD OCCUPATIONS ===================
     ------------------------ ATOM    1 ------------------------
     Tr[ns(  1)] (up, down, total) =   4.99234  2.18887  7.18120
     Atomic magnetic moment for atom   1 =   2.80347
     SPIN  1
     eigenvalues:
       0.998  0.998  0.998  0.999  0.999
     eigenvectors (columns):
       0.000  0.000 -1.000  0.000 -0.000
      -0.586  0.626  0.000  0.279  0.432
       0.626  0.586  0.000  0.432 -0.279
      -0.375 -0.351  0.000  0.721 -0.465
       0.351 -0.375  0.000  0.465  0.721
     occupation matrix ns (before diag.):
       0.998  0.000  0.000  0.000  0.000
       0.000  0.998  0.000 -0.000  0.000
       0.000  0.000  0.998  0.000  0.000
       0.000 -0.000  0.000  0.999 -0.000
       0.000  0.000  0.000 -0.000  0.999
     SPIN  2
     eigenvalues:
       0.137  0.137  0.597  0.597  0.721
     eigenvectors (columns):
      -0.000  0.000 -0.000 -0.000  1.000
      -0.801 -0.227  0.333 -0.443  0.000
      -0.227  0.801  0.443  0.333  0.000
       0.151 -0.533  0.665  0.501  0.000
       0.533  0.151  0.501 -0.665  0.000
     occupation matrix ns (before diag.):
       0.721  0.000  0.000  0.000  0.000
       0.000  0.278  0.000 -0.000  0.212
       0.000  0.000  0.278  0.212  0.000
       0.000 -0.000  0.212  0.456 -0.000
       0.000  0.212  0.000 -0.000  0.456
     ------------------------ ATOM    2 ------------------------
     Tr[ns(  2)] (up, down, total) =   2.19976  4.99253  7.19229
     Atomic magnetic moment for atom   2 =  -2.79277
     SPIN  1
     eigenvalues:
       0.137  0.137  0.599  0.599  0.728
     eigenvectors (columns):
       0.000 -0.000 -0.000 -0.000  1.000
       0.809  0.212  0.330 -0.439  0.000
       0.212 -0.809  0.439  0.330  0.000
      -0.139  0.531  0.668  0.502  0.000
      -0.531 -0.139  0.502 -0.668  0.000
     occupation matrix ns (before diag.):
       0.728  0.000  0.000  0.000  0.000
       0.000  0.276  0.000 -0.000  0.212
       0.000  0.000  0.276  0.212  0.000
       0.000 -0.000  0.212  0.460 -0.000
       0.000  0.212  0.000 -0.000  0.460
     SPIN  2
     eigenvalues:
       0.998  0.998  0.998  0.999  0.999
     eigenvectors (columns):
       0.000  0.000 -1.000  0.000 -0.000
      -0.558  0.647  0.000  0.283  0.436
       0.647  0.558  0.000  0.436 -0.283
      -0.394 -0.340  0.000  0.716 -0.465
       0.340 -0.394  0.000  0.465  0.716
     occupation matrix ns (before diag.):
       0.998  0.000  0.000  0.000  0.000
       0.000  0.998  0.000 -0.000  0.000
       0.000  0.000  0.998  0.000  0.000
       0.000 -0.000  0.000  0.999 -0.000
       0.000  0.000  0.000 -0.000  0.999

     Number of occupied Hubbard levels =   14.3735

     HUBBARD ENERGY =    0.4169  (Ry)

     total cpu time spent up to now is       21.7 secs

     total energy              =    -768.21335600 Ry
     estimated scf accuracy    <       3.48948312 Ry

     total magnetization       =     0.00 Bohr mag/cell
     absolute magnetization    =     7.86 Bohr mag/cell

     iteration #  3     ecut=    49.00 Ry     beta= 0.20
     Davidson diagonalization with overlap

---- Real-time Memory Report at c_bands before calling an iterative solver
           109 MiB given to the printing process from OS
            71 MiB allocation reported by mallinfo(arena+hblkhd)
        238973 MiB available memory on the node where the printing process lives
------------------
     ethr =  5.45E-03,  avg # of iterations =  8.3

     =================== HUBBARD OCCUPATIONS ===================
     ------------------------ ATOM    1 ------------------------
     Tr[ns(  1)] (up, down, total) =   4.98445  4.56396  9.54840
     Atomic magnetic moment for atom   1 =   0.42049
     SPIN  1
     eigenvalues:
       0.997  0.997  0.997  0.997  0.997
     eigenvectors (columns):
      -1.000  0.000 -0.000  0.000  0.000
       0.000  0.382  0.498 -0.039 -0.777
       0.000  0.498 -0.382 -0.777  0.039
       0.000  0.618 -0.473  0.627 -0.032
       0.000  0.473  0.618  0.032  0.627
     occupation matrix ns (before diag.):
       0.997  0.000  0.000  0.000  0.000
       0.000  0.997  0.000 -0.000 -0.000
       0.000  0.000  0.997 -0.000  0.000
       0.000 -0.000 -0.000  0.997 -0.000
       0.000 -0.000  0.000 -0.000  0.997
     SPIN  2
     eigenvalues:
       0.849  0.849  0.937  0.937  0.993
     eigenvectors (columns):
       0.000 -0.000 -0.000  0.000  1.000
       0.152 -0.464  0.844  0.221  0.000
       0.464  0.152  0.221 -0.844  0.000
      -0.829 -0.271  0.124 -0.473  0.000
      -0.271  0.829  0.473  0.124  0.000
     occupation matrix ns (before diag.):
       0.993  0.000  0.000  0.000  0.000
       0.000  0.916  0.000 -0.000  0.037
       0.000  0.000  0.916  0.037  0.000
       0.000 -0.000  0.037  0.870 -0.000
       0.000  0.037  0.000 -0.000  0.870
     ------------------------ ATOM    2 ------------------------
     Tr[ns(  2)] (up, down, total) =   4.57207  4.98406  9.55613
     Atomic magnetic moment for atom   2 =  -0.41199
     SPIN  1
     eigenvalues:
       0.844  0.844  0.944  0.944  0.996
     eigenvectors (columns):
       0.000 -0.000 -0.000  0.000  1.000
       0.154 -0.639  0.562  0.502  0.000
       0.639  0.154  0.502 -0.562  0.000
      -0.732 -0.177  0.438 -0.490  0.000
      -0.177  0.732  0.490  0.438  0.000
     occupation matrix ns (before diag.):
       0.996  0.000  0.000  0.000  0.000
       0.000  0.901  0.000 -0.000  0.049
       0.000  0.000  0.901  0.049  0.000
       0.000 -0.000  0.049  0.887 -0.000
       0.000  0.049  0.000 -0.000  0.887
     SPIN  2
     eigenvalues:
       0.997  0.997  0.997  0.997  0.997
     eigenvectors (columns):
      -0.000 -0.000 -1.000  0.000 -0.000
       0.952  0.301 -0.000  0.022  0.046
      -0.301  0.952 -0.000  0.046 -0.022
       0.015 -0.049  0.000  0.905 -0.423
      -0.049 -0.015  0.000  0.423  0.905
     occupation matrix ns (before diag.):
       0.997  0.000  0.000  0.000  0.000
       0.000  0.997  0.000 -0.000  0.000
       0.000  0.000  0.997  0.000  0.000
       0.000 -0.000  0.000  0.997 -0.000
       0.000  0.000  0.000 -0.000  0.997

     Number of occupied Hubbard levels =   19.1045

     HUBBARD ENERGY =    0.3607  (Ry)

     total cpu time spent up to now is       22.6 secs

     total energy              =    -772.39144193 Ry
     estimated scf accuracy    <       9.30312880 Ry

     total magnetization       =     0.00 Bohr mag/cell
     absolute magnetization    =     2.86 Bohr mag/cell

     iteration #  4     ecut=    49.00 Ry     beta= 0.20
     Davidson diagonalization with overlap

---- Real-time Memory Report at c_bands before calling an iterative solver
           111 MiB given to the printing process from OS
            71 MiB allocation reported by mallinfo(arena+hblkhd)
        238943 MiB available memory on the node where the printing process lives
------------------
     ethr =  5.45E-03,  avg # of iterations =  3.3

     =================== HUBBARD OCCUPATIONS ===================
     ------------------------ ATOM    1 ------------------------
     Tr[ns(  1)] (up, down, total) =   4.96052  4.92118  9.88170
     Atomic magnetic moment for atom   1 =   0.03934
     SPIN  1
     eigenvalues:
       0.991  0.991  0.991  0.993  0.993
     eigenvectors (columns):
       1.000 -0.000 -0.000 -0.000 -0.000
      -0.000 -0.380  0.498  0.034  0.779
      -0.000 -0.498 -0.380  0.779 -0.034
      -0.000 -0.620 -0.473 -0.625  0.028
      -0.000 -0.473  0.620 -0.028 -0.625
     occupation matrix ns (before diag.):
       0.991  0.000  0.000  0.000  0.000
       0.000  0.993  0.000 -0.000 -0.001
       0.000  0.000  0.993 -0.001  0.000
       0.000 -0.000 -0.001  0.992 -0.000
       0.000 -0.001  0.000 -0.000  0.992
     SPIN  2
     eigenvalues:
       0.971  0.971  0.991  0.991  0.997
     eigenvectors (columns):
       0.000  0.000 -0.000 -0.000 -1.000
       0.021 -0.047  0.965  0.259 -0.000
       0.047  0.021 -0.259  0.965 -0.000
      -0.914 -0.402 -0.013  0.049 -0.000
      -0.402  0.914  0.049  0.013 -0.000
     occupation matrix ns (before diag.):
       0.997  0.000  0.000  0.000  0.000
       0.000  0.991  0.000 -0.000  0.001
       0.000  0.000  0.991  0.001  0.000
       0.000 -0.000  0.001  0.971 -0.000
       0.000  0.001  0.000 -0.000  0.971
     ------------------------ ATOM    2 ------------------------
     Tr[ns(  2)] (up, down, total) =   4.95177  4.96208  9.91385
     Atomic magnetic moment for atom   2 =  -0.01031
     SPIN  1
     eigenvalues:
       0.980  0.980  0.997  0.997  0.997
     eigenvectors (columns):
      -0.000 -0.000 -1.000 -0.000 -0.000
       0.276 -0.779  0.000 -0.319  0.464
      -0.779 -0.276  0.000 -0.464 -0.319
       0.531  0.188  0.000 -0.681 -0.468
      -0.188  0.531  0.000 -0.468  0.681
     occupation matrix ns (before diag.):
       0.997  0.000  0.000  0.000  0.000
       0.000  0.986  0.000 -0.000  0.008
       0.000  0.000  0.986  0.008  0.000
       0.000 -0.000  0.008  0.992 -0.000
       0.000  0.008  0.000 -0.000  0.992
     SPIN  2
     eigenvalues:
       0.992  0.992  0.992  0.994  0.994
     eigenvectors (columns):
      -1.000  0.000 -0.000  0.000  0.000
       0.000  0.386  0.500 -0.049 -0.773
       0.000  0.500 -0.386 -0.773  0.049
       0.000  0.613 -0.474  0.631 -0.040
       0.000  0.474  0.613  0.040  0.631
     occupation matrix ns (before diag.):
       0.992  0.000  0.000  0.000  0.000
       0.000  0.993  0.000 -0.000 -0.001
       0.000  0.000  0.993 -0.001  0.000
       0.000 -0.000 -0.001  0.992 -0.000
       0.000 -0.001  0.000 -0.000  0.992

     Number of occupied Hubbard levels =   19.7956

     HUBBARD ENERGY =    0.4369  (Ry)

     total cpu time spent up to now is       23.3 secs

     total energy              =    -771.66039205 Ry
     estimated scf accuracy    <      20.51031534 Ry

     total magnetization       =     0.00 Bohr mag/cell
     absolute magnetization    =     2.18 Bohr mag/cell

     iteration #  5     ecut=    49.00 Ry     beta= 0.20
     Davidson diagonalization with overlap

---- Real-time Memory Report at c_bands before calling an iterative solver
           111 MiB given to the printing process from OS
            71 MiB allocation reported by mallinfo(arena+hblkhd)
        238945 MiB available memory on the node where the printing process lives
------------------
     ethr =  5.45E-03,  avg # of iterations =  1.9

     =================== HUBBARD OCCUPATIONS ===================
     ------------------------ ATOM    1 ------------------------
     Tr[ns(  1)] (up, down, total) =   4.98251  4.92230  9.90481
     Atomic magnetic moment for atom   1 =   0.06021
     SPIN  1
     eigenvalues:
       0.996  0.996  0.996  0.997  0.997
     eigenvectors (columns):
       1.000 -0.000 -0.000 -0.000 -0.000
      -0.000 -0.376  0.496  0.024  0.782
      -0.000 -0.496 -0.376  0.782 -0.024
      -0.000 -0.624 -0.473 -0.622  0.019
      -0.000 -0.473  0.624 -0.019 -0.622
     occupation matrix ns (before diag.):
       0.996  0.000  0.000  0.000  0.000
       0.000  0.997  0.000 -0.000 -0.000
       0.000  0.000  0.997 -0.000  0.000
       0.000 -0.000 -0.000  0.997 -0.000
       0.000 -0.000  0.000 -0.000  0.997
     SPIN  2
     eigenvalues:
       0.971  0.971  0.991  0.991  0.999
     eigenvectors (columns):
       0.000 -0.000 -0.000 -0.000 -1.000
       0.057 -0.137  0.967  0.208 -0.000
       0.137  0.057 -0.208  0.967 -0.000
      -0.912 -0.382 -0.031  0.145 -0.000
      -0.382  0.912  0.145  0.031 -0.000
     occupation matrix ns (before diag.):
       0.999  0.000  0.000  0.000  0.000
       0.000  0.990  0.000 -0.000  0.003
       0.000  0.000  0.990  0.003  0.000
       0.000 -0.000  0.003  0.972 -0.000
       0.000  0.003  0.000 -0.000  0.972
     ------------------------ ATOM    2 ------------------------
     Tr[ns(  2)] (up, down, total) =   4.94086  4.98208  9.92295
     Atomic magnetic moment for atom   2 =  -0.04122
     SPIN  1
     eigenvalues:
       0.973  0.973  0.999  0.999  0.999
     eigenvectors (columns):
       0.000  0.000 -0.000  0.000  1.000
      -0.228  0.789  0.325  0.469  0.000
       0.789  0.228  0.469 -0.325  0.000
      -0.548 -0.158  0.675 -0.468  0.000
       0.158 -0.548  0.468  0.675  0.000
     occupation matrix ns (before diag.):
       0.999  0.000  0.000  0.000  0.000
       0.000  0.981  0.000 -0.000  0.012
       0.000  0.000  0.981  0.012  0.000
       0.000 -0.000  0.012  0.990 -0.000
       0.000  0.012  0.000 -0.000  0.990
     SPIN  2
     eigenvalues:
       0.996  0.996  0.996  0.996  0.996
     eigenvectors (columns):
      -0.000 -0.000 -0.000  0.000  1.000
       0.775  0.464  0.219  0.369  0.000
      -0.464  0.775  0.369 -0.219  0.000
       0.220 -0.368  0.777 -0.460  0.000
      -0.368 -0.220  0.460  0.777  0.000
     occupation matrix ns (before diag.):
       0.996  0.000  0.000  0.000  0.000
       0.000  0.996  0.000 -0.000  0.000
       0.000  0.000  0.996  0.000  0.000
       0.000 -0.000  0.000  0.996 -0.000
       0.000  0.000  0.000 -0.000  0.996

     Number of occupied Hubbard levels =   19.8278

     HUBBARD ENERGY =    0.3571  (Ry)

     total cpu time spent up to now is       23.9 secs

     total energy              =    -768.64249978 Ry
     estimated scf accuracy    <      13.72128535 Ry

     total magnetization       =     0.00 Bohr mag/cell
     absolute magnetization    =     2.14 Bohr mag/cell

     iteration #  6     ecut=    49.00 Ry     beta= 0.20
     Davidson diagonalization with overlap

---- Real-time Memory Report at c_bands before calling an iterative solver
           112 MiB given to the printing process from OS
            71 MiB allocation reported by mallinfo(arena+hblkhd)
        238932 MiB available memory on the node where the printing process lives
------------------
     ethr =  5.45E-03,  avg # of iterations =  5.3

     =================== HUBBARD OCCUPATIONS ===================
     ------------------------ ATOM    1 ------------------------
     Tr[ns(  1)] (up, down, total) =   4.94299  3.42922  8.37222
     Atomic magnetic moment for atom   1 =   1.51377
     SPIN  1
     eigenvalues:
       0.987  0.988  0.988  0.989  0.989
     eigenvectors (columns):
       1.000 -0.000 -0.000  0.000 -0.000
      -0.000 -0.298  0.448  0.457  0.708
      -0.000 -0.448 -0.298 -0.708  0.457
      -0.000 -0.702 -0.466  0.452 -0.292
      -0.000 -0.466  0.702 -0.292 -0.452
     occupation matrix ns (before diag.):
       0.987  0.000  0.000  0.000  0.000
       0.000  0.989  0.000 -0.000 -0.000
       0.000  0.000  0.989 -0.000  0.000
       0.000 -0.000 -0.000  0.989 -0.000
       0.000 -0.000  0.000 -0.000  0.989
     SPIN  2
     eigenvalues:
       0.279  0.279  0.949  0.949  0.974
     eigenvectors (columns):
      -0.000  0.000 -0.000  0.000  1.000
      -0.127  0.768  0.382  0.498  0.000
      -0.768 -0.127  0.498 -0.382  0.000
       0.619  0.103  0.618 -0.474  0.000
       0.103 -0.619  0.474  0.618  0.000
     occupation matrix ns (before diag.):
       0.974  0.000  0.000  0.000  0.000
       0.000  0.543  0.000 -0.000  0.327
       0.000  0.000  0.543  0.327  0.000
       0.000 -0.000  0.327  0.685 -0.000
       0.000  0.327  0.000 -0.000  0.685
     ------------------------ ATOM    2 ------------------------
     Tr[ns(  2)] (up, down, total) =   3.60206  4.95785  8.55991
     Atomic magnetic moment for atom   2 =  -1.35579
     SPIN  1
     eigenvalues:
       0.337  0.337  0.975  0.975  0.978
     eigenvectors (columns):
       0.000 -0.000  0.000  0.000  1.000
       0.093 -0.787 -0.364  0.489  0.000
       0.787  0.093 -0.489 -0.364  0.000
      -0.605 -0.071 -0.636 -0.474  0.000
      -0.071  0.605 -0.474  0.636  0.000
     occupation matrix ns (before diag.):
       0.978  0.000  0.000  0.000  0.000
       0.000  0.574  0.000 -0.000  0.308
       0.000  0.000  0.574  0.308  0.000
       0.000 -0.000  0.308  0.738 -0.000
       0.000  0.308  0.000 -0.000  0.738
     SPIN  2
     eigenvalues:
       0.990  0.991  0.991  0.993  0.993
     eigenvectors (columns):
       1.000  0.000  0.000  0.000  0.000
      -0.000  0.374 -0.495 -0.016 -0.785
      -0.000  0.495  0.374 -0.785  0.016
      -0.000  0.626  0.473  0.620 -0.012
      -0.000  0.473 -0.626  0.012  0.620
     occupation matrix ns (before diag.):
       0.990  0.000  0.000  0.000  0.000
       0.000  0.992  0.000 -0.000 -0.001
       0.000  0.000  0.992 -0.001  0.000
       0.000 -0.000 -0.001  0.992 -0.000
       0.000 -0.001  0.000 -0.000  0.992

     Number of occupied Hubbard levels =   16.9321

     HUBBARD ENERGY =    0.3440  (Ry)

     total cpu time spent up to now is       24.7 secs

     total energy              =    -770.41943389 Ry
     estimated scf accuracy    <       0.42824621 Ry

     total magnetization       =     0.00 Bohr mag/cell
     absolute magnetization    =     4.07 Bohr mag/cell

     iteration #  7     ecut=    49.00 Ry     beta= 0.20
     Davidson diagonalization with overlap

---- Real-time Memory Report at c_bands before calling an iterative solver
           112 MiB given to the printing process from OS
            72 MiB allocation reported by mallinfo(arena+hblkhd)
        238926 MiB available memory on the node where the printing process lives
------------------
     ethr =  6.69E-04,  avg # of iterations =  1.6

     =================== HUBBARD OCCUPATIONS ===================
     ------------------------ ATOM    1 ------------------------
     Tr[ns(  1)] (up, down, total) =   4.93991  3.43421  8.37412
     Atomic magnetic moment for atom   1 =   1.50570
     SPIN  1
     eigenvalues:
       0.986  0.988  0.988  0.989  0.989
     eigenvectors (columns):
       1.000 -0.000 -0.000  0.000 -0.000
      -0.000 -0.327  0.470  0.214  0.792
      -0.000 -0.470 -0.327 -0.792  0.214
      -0.000 -0.673 -0.469  0.553 -0.149
      -0.000 -0.469  0.673 -0.149 -0.553
     occupation matrix ns (before diag.):
       0.986  0.000  0.000  0.000  0.000
       0.000  0.989  0.000 -0.000 -0.001
       0.000  0.000  0.989 -0.001  0.000
       0.000 -0.000 -0.001  0.988 -0.000
       0.000 -0.001  0.000 -0.000  0.988
     SPIN  2
     eigenvalues:
       0.280  0.280  0.950  0.950  0.974
     eigenvectors (columns):
      -0.000  0.000 -0.000  0.000  1.000
      -0.127  0.768  0.382  0.498  0.000
      -0.768 -0.127  0.498 -0.382  0.000
       0.619  0.102  0.617 -0.474  0.000
       0.102 -0.619  0.474  0.617  0.000
     occupation matrix ns (before diag.):
       0.974  0.000  0.000  0.000  0.000
       0.000  0.544  0.000 -0.000  0.327
       0.000  0.000  0.544  0.327  0.000
       0.000 -0.000  0.327  0.686 -0.000
       0.000  0.327  0.000 -0.000  0.686
     ------------------------ ATOM    2 ------------------------
     Tr[ns(  2)] (up, down, total) =   3.59377  4.95021  8.54398
     Atomic magnetic moment for atom   2 =  -1.35644
     SPIN  1
     eigenvalues:
       0.334  0.334  0.974  0.974  0.977
     eigenvectors (columns):
       0.000 -0.000  0.000  0.000  1.000
       0.091 -0.788 -0.364  0.489  0.000
       0.788  0.091 -0.489 -0.364  0.000
      -0.605 -0.070 -0.636 -0.474  0.000
      -0.070  0.605 -0.474  0.636  0.000
     occupation matrix ns (before diag.):
       0.977  0.000  0.000  0.000  0.000
       0.000  0.572  0.000 -0.000  0.309
       0.000  0.000  0.572  0.309  0.000
       0.000 -0.000  0.309  0.736 -0.000
       0.000  0.309  0.000 -0.000  0.736
     SPIN  2
     eigenvalues:
       0.989  0.989  0.989  0.992  0.992
     eigenvectors (columns):
       1.000 -0.000 -0.000  0.000 -0.000
      -0.000 -0.343  0.479  0.112  0.800
      -0.000 -0.479 -0.343 -0.800  0.112
      -0.000 -0.657 -0.470  0.583 -0.082
      -0.000 -0.470  0.657 -0.082 -0.583
     occupation matrix ns (before diag.):
       0.989  0.000  0.000  0.000  0.000
       0.000  0.991  0.000 -0.000 -0.001
       0.000  0.000  0.991 -0.001  0.000
       0.000 -0.000 -0.001  0.990 -0.000
       0.000 -0.001  0.000 -0.000  0.990

     Number of occupied Hubbard levels =   16.9181

     HUBBARD ENERGY =    0.3274  (Ry)

     total cpu time spent up to now is       25.2 secs

     total energy              =    -770.30689539 Ry
     estimated scf accuracy    <       0.44269239 Ry

     total magnetization       =    -0.00 Bohr mag/cell
     absolute magnetization    =     4.08 Bohr mag/cell

     iteration #  8     ecut=    49.00 Ry     beta= 0.20
     Davidson diagonalization with overlap

---- Real-time Memory Report at c_bands before calling an iterative solver
           112 MiB given to the printing process from OS
            71 MiB allocation reported by mallinfo(arena+hblkhd)
        238921 MiB available memory on the node where the printing process lives
------------------
     ethr =  6.69E-04,  avg # of iterations =  6.3

     =================== HUBBARD OCCUPATIONS ===================
     ------------------------ ATOM    1 ------------------------
     Tr[ns(  1)] (up, down, total) =   4.98199  4.20466  9.18665
     Atomic magnetic moment for atom   1 =   0.77733
     SPIN  1
     eigenvalues:
       0.996  0.996  0.996  0.997  0.997
     eigenvectors (columns):
       0.000 -0.000 -1.000  0.000  0.000
       0.160 -0.472  0.000  0.835 -0.233
       0.472  0.160  0.000  0.233  0.835
      -0.821 -0.279  0.000  0.134  0.480
      -0.279  0.821  0.000  0.480 -0.134
     occupation matrix ns (before diag.):
       0.996  0.000  0.000  0.000  0.000
       0.000  0.996  0.000 -0.000  0.000
       0.000  0.000  0.996  0.000  0.000
       0.000 -0.000  0.000  0.996 -0.000
       0.000  0.000  0.000 -0.000  0.996
     SPIN  2
     eigenvalues:
       0.614  0.614  0.992  0.992  0.992
     eigenvectors (columns):
      -0.000  0.000  0.000  0.000 -1.000
       0.002  0.795 -0.360  0.488 -0.000
      -0.795  0.002 -0.488 -0.360 -0.000
       0.607 -0.001 -0.639 -0.472 -0.000
      -0.001 -0.607 -0.472  0.639 -0.000
     occupation matrix ns (before diag.):
       0.992  0.000  0.000  0.000  0.000
       0.000  0.753  0.000 -0.000  0.182
       0.000  0.000  0.753  0.182  0.000
       0.000 -0.000  0.182  0.853 -0.000
       0.000  0.182  0.000 -0.000  0.853
     ------------------------ ATOM    2 ------------------------
     Tr[ns(  2)] (up, down, total) =   3.93859  4.97734  8.91593
     Atomic magnetic moment for atom   2 =  -1.03874
     SPIN  1
     eigenvalues:
       0.485  0.485  0.989  0.989  0.990
     eigenvectors (columns):
       0.000  0.000  0.000  0.000  1.000
       0.006  0.797 -0.358  0.486  0.000
       0.797 -0.006 -0.486 -0.358  0.000
      -0.603  0.005 -0.642 -0.473  0.000
      -0.005 -0.603 -0.473  0.642  0.000
     occupation matrix ns (before diag.):
       0.990  0.000  0.000  0.000  0.000
       0.000  0.669  0.000 -0.000  0.243
       0.000  0.000  0.669  0.243  0.000
       0.000 -0.000  0.243  0.806 -0.000
       0.000  0.243  0.000 -0.000  0.806
     SPIN  2
     eigenvalues:
       0.995  0.995  0.995  0.996  0.996
     eigenvectors (columns):
      -0.000  0.000 -1.000  0.000 -0.000
       0.229  0.382 -0.000  0.754 -0.483
       0.382 -0.229 -0.000 -0.483 -0.754
       0.768 -0.461 -0.000  0.240  0.375
       0.461  0.768 -0.000 -0.375  0.240
     occupation matrix ns (before diag.):
       0.995  0.000  0.000  0.000  0.000
       0.000  0.996  0.000 -0.000 -0.000
       0.000  0.000  0.996 -0.000  0.000
       0.000 -0.000 -0.000  0.995 -0.000
       0.000 -0.000  0.000 -0.000  0.995

     Number of occupied Hubbard levels =   18.1026

     HUBBARD ENERGY =    0.3246  (Ry)

     total cpu time spent up to now is       26.1 secs

     total energy              =    -770.48388339 Ry
     estimated scf accuracy    <       0.57493529 Ry

     total magnetization       =     0.00 Bohr mag/cell
     absolute magnetization    =     3.98 Bohr mag/cell

     iteration #  9     ecut=    49.00 Ry     beta= 0.20
     Davidson diagonalization with overlap

---- Real-time Memory Report at c_bands before calling an iterative solver
           113 MiB given to the printing process from OS
            71 MiB allocation reported by mallinfo(arena+hblkhd)
        238907 MiB available memory on the node where the printing process lives
------------------
     ethr =  6.69E-04,  avg # of iterations =  1.0

     =================== HUBBARD OCCUPATIONS ===================
     ------------------------ ATOM    1 ------------------------
     Tr[ns(  1)] (up, down, total) =   4.97982  4.19017  9.16999
     Atomic magnetic moment for atom   1 =   0.78965
     SPIN  1
     eigenvalues:
       0.996  0.996  0.996  0.996  0.996
     eigenvectors (columns):
      -0.000 -0.000 -1.000 -0.000  0.000
      -0.079 -0.193  0.000 -0.963  0.170
      -0.193  0.079  0.000  0.170  0.963
       0.904 -0.372 -0.000  0.036  0.205
       0.372  0.904 -0.000 -0.205  0.036
     occupation matrix ns (before diag.):
       0.996  0.000  0.000  0.000  0.000
       0.000  0.996  0.000 -0.000  0.000
       0.000  0.000  0.996  0.000  0.000
       0.000 -0.000  0.000  0.996 -0.000
       0.000  0.000  0.000 -0.000  0.996
     SPIN  2
     eigenvalues:
       0.608  0.608  0.991  0.991  0.991
     eigenvectors (columns):
      -0.000  0.000 -0.000  0.000 -1.000
       0.004  0.796  0.360  0.488 -0.000
      -0.796  0.004  0.488 -0.360 -0.000
       0.606 -0.003  0.640 -0.472 -0.000
      -0.003 -0.606  0.472  0.640 -0.000
     occupation matrix ns (before diag.):
       0.991  0.000  0.000  0.000  0.000
       0.000  0.749  0.000 -0.000  0.184
       0.000  0.000  0.749  0.184  0.000
       0.000 -0.000  0.184  0.851 -0.000
       0.000  0.184  0.000 -0.000  0.851
     ------------------------ ATOM    2 ------------------------
     Tr[ns(  2)] (up, down, total) =   3.92386  4.97532  8.89919
     Atomic magnetic moment for atom   2 =  -1.05146
     SPIN  1
     eigenvalues:
       0.478  0.478  0.989  0.989  0.990
     eigenvectors (columns):
       0.000 -0.000 -0.000  0.000  1.000
       0.001 -0.798  0.357  0.486  0.000
       0.798  0.001  0.486 -0.357  0.000
      -0.603 -0.001  0.643 -0.473  0.000
      -0.001  0.603  0.473  0.643  0.000
     occupation matrix ns (before diag.):
       0.990  0.000  0.000  0.000  0.000
       0.000  0.664  0.000 -0.000  0.245
       0.000  0.000  0.664  0.245  0.000
       0.000 -0.000  0.245  0.803 -0.000
       0.000  0.245  0.000 -0.000  0.803
     SPIN  2
     eigenvalues:
       0.995  0.995  0.995  0.996  0.996
     eigenvectors (columns):
      -0.000  0.000 -1.000 -0.000  0.000
       0.220  0.370 -0.000 -0.774  0.465
       0.370 -0.220 -0.000  0.465  0.774
       0.776 -0.460 -0.000 -0.222 -0.369
       0.460  0.776 -0.000  0.369 -0.222
     occupation matrix ns (before diag.):
       0.995  0.000  0.000  0.000  0.000
       0.000  0.996  0.000 -0.000 -0.000
       0.000  0.000  0.996 -0.000  0.000
       0.000 -0.000 -0.000  0.995 -0.000
       0.000 -0.000  0.000 -0.000  0.995

     Number of occupied Hubbard levels =   18.0692

     HUBBARD ENERGY =    0.2853  (Ry)

     total cpu time spent up to now is       26.6 secs

     total energy              =    -770.28306481 Ry
     estimated scf accuracy    <       0.45204037 Ry

     total magnetization       =    -0.00 Bohr mag/cell
     absolute magnetization    =     3.98 Bohr mag/cell

     iteration # 10     ecut=    49.00 Ry     beta= 0.20
     Davidson diagonalization with overlap

---- Real-time Memory Report at c_bands before calling an iterative solver
           113 MiB given to the printing process from OS
            71 MiB allocation reported by mallinfo(arena+hblkhd)
        238872 MiB available memory on the node where the printing process lives
------------------
     ethr =  6.69E-04,  avg # of iterations =  4.5

     =================== HUBBARD OCCUPATIONS ===================
     ------------------------ ATOM    1 ------------------------
     Tr[ns(  1)] (up, down, total) =   4.92973  3.41279  8.34251
     Atomic magnetic moment for atom   1 =   1.51694
     SPIN  1
     eigenvalues:
       0.984  0.985  0.985  0.988  0.988
     eigenvectors (columns):
       1.000 -0.000 -0.000  0.000 -0.000
      -0.000 -0.298  0.448  0.460  0.706
      -0.000 -0.448 -0.298 -0.706  0.460
      -0.000 -0.702 -0.467  0.451 -0.294
      -0.000 -0.467  0.702 -0.294 -0.451
     occupation matrix ns (before diag.):
       0.984  0.000  0.000  0.000  0.000
       0.000  0.987  0.000 -0.000 -0.002
       0.000  0.000  0.987 -0.002  0.000
       0.000 -0.000 -0.002  0.986 -0.000
       0.000 -0.002  0.000 -0.000  0.986
     SPIN  2
     eigenvalues:
       0.243  0.243  0.975  0.975  0.976
     eigenvectors (columns):
       0.000 -0.000  0.000  0.000  1.000
       0.108 -0.783 -0.367  0.490  0.000
       0.783  0.108 -0.490 -0.367  0.000
      -0.607 -0.083 -0.633 -0.474  0.000
      -0.083  0.607 -0.474  0.633  0.000
     occupation matrix ns (before diag.):
       0.976  0.000  0.000  0.000  0.000
       0.000  0.518  0.000 -0.000  0.355
       0.000  0.000  0.518  0.355  0.000
       0.000 -0.000  0.355  0.700 -0.000
       0.000  0.355  0.000 -0.000  0.700
     ------------------------ ATOM    2 ------------------------
     Tr[ns(  2)] (up, down, total) =   3.56068  4.94422  8.50490
     Atomic magnetic moment for atom   2 =  -1.38354
     SPIN  1
     eigenvalues:
       0.310  0.310  0.980  0.980  0.981
     eigenvectors (columns):
      -0.000 -0.000  0.000  0.000 -1.000
      -0.056 -0.795 -0.358  0.486 -0.000
      -0.795  0.056 -0.486 -0.358 -0.000
       0.602 -0.043 -0.642 -0.473 -0.000
       0.043  0.602 -0.473  0.642 -0.000
     occupation matrix ns (before diag.):
       0.981  0.000  0.000  0.000  0.000
       0.000  0.554  0.000 -0.000  0.322
       0.000  0.000  0.554  0.322  0.000
       0.000 -0.000  0.322  0.736 -0.000
       0.000  0.322  0.000 -0.000  0.736
     SPIN  2
     eigenvalues:
       0.987  0.987  0.987  0.991  0.991
     eigenvectors (columns):
      -0.000  0.000  1.000 -0.000  0.000
       0.294  0.445  0.000 -0.487 -0.691
       0.445 -0.294  0.000  0.691 -0.487
       0.706 -0.466  0.000 -0.436  0.307
       0.466  0.706  0.000  0.307  0.436
     occupation matrix ns (before diag.):
       0.987  0.000  0.000  0.000  0.000
       0.000  0.990  0.000 -0.000 -0.002
       0.000  0.000  0.990 -0.002  0.000
       0.000 -0.000 -0.002  0.988 -0.000
       0.000 -0.002  0.000 -0.000  0.988

     Number of occupied Hubbard levels =   16.8474

     HUBBARD ENERGY =    0.2610  (Ry)

     total cpu time spent up to now is       27.4 secs

     total energy              =    -770.45867432 Ry
     estimated scf accuracy    <       0.49158394 Ry

     total magnetization       =     0.00 Bohr mag/cell
     absolute magnetization    =     4.05 Bohr mag/cell

     iteration # 11     ecut=    49.00 Ry     beta= 0.20
     Davidson diagonalization with overlap

---- Real-time Memory Report at c_bands before calling an iterative solver
           113 MiB given to the printing process from OS
            71 MiB allocation reported by mallinfo(arena+hblkhd)
        238917 MiB available memory on the node where the printing process lives
------------------
     ethr =  6.69E-04,  avg # of iterations =  1.2

     =================== HUBBARD OCCUPATIONS ===================
     ------------------------ ATOM    1 ------------------------
     Tr[ns(  1)] (up, down, total) =   4.94616  3.43316  8.37932
     Atomic magnetic moment for atom   1 =   1.51300
     SPIN  1
     eigenvalues:
       0.988  0.988  0.988  0.991  0.991
     eigenvectors (columns):
      -0.000  0.000 -1.000  0.000  0.000
       0.247  0.401 -0.000  0.711 -0.522
       0.401 -0.247 -0.000 -0.522 -0.711
       0.751 -0.462 -0.000  0.279  0.380
       0.462  0.751 -0.000 -0.380  0.279
     occupation matrix ns (before diag.):
       0.988  0.000  0.000  0.000  0.000
       0.000  0.990  0.000 -0.000 -0.001
       0.000  0.000  0.990 -0.001  0.000
       0.000 -0.000 -0.001  0.989 -0.000
       0.000 -0.001  0.000 -0.000  0.989
     SPIN  2
     eigenvalues:
       0.244  0.244  0.981  0.981  0.982
     eigenvectors (columns):
       0.000 -0.000  0.000  0.000  1.000
       0.099 -0.785 -0.366  0.490  0.000
       0.785  0.099 -0.490 -0.366  0.000
      -0.606 -0.077 -0.634 -0.474  0.000
      -0.077  0.606 -0.474  0.634  0.000
     occupation matrix ns (before diag.):
       0.982  0.000  0.000  0.000  0.000
       0.000  0.519  0.000 -0.000  0.357
       0.000  0.000  0.519  0.357  0.000
       0.000 -0.000  0.357  0.706 -0.000
       0.000  0.357  0.000 -0.000  0.706
     ------------------------ ATOM    2 ------------------------
     Tr[ns(  2)] (up, down, total) =   3.56792  4.95754  8.52546
     Atomic magnetic moment for atom   2 =  -1.38963
     SPIN  1
     eigenvalues:
       0.307  0.307  0.985  0.985  0.985
     eigenvectors (columns):
      -0.000 -0.000  0.000  0.000 -1.000
      -0.048 -0.797 -0.356  0.485 -0.000
      -0.797  0.048 -0.485 -0.356 -0.000
       0.601 -0.036 -0.644 -0.472 -0.000
       0.036  0.601 -0.472  0.644 -0.000
     occupation matrix ns (before diag.):
       0.985  0.000  0.000  0.000  0.000
       0.000  0.552  0.000 -0.000  0.326
       0.000  0.000  0.552  0.326  0.000
       0.000 -0.000  0.326  0.739 -0.000
       0.000  0.326  0.000 -0.000  0.739
     SPIN  2
     eigenvalues:
       0.990  0.990  0.991  0.993  0.993
     eigenvectors (columns):
      -0.000  0.000 -1.000  0.000  0.000
       0.268  0.422 -0.000  0.641 -0.583
       0.422 -0.268 -0.000 -0.583 -0.641
       0.732 -0.464 -0.000  0.336  0.370
       0.464  0.732 -0.000 -0.370  0.336
     occupation matrix ns (before diag.):
       0.991  0.000  0.000  0.000  0.000
       0.000  0.993  0.000 -0.000 -0.001
       0.000  0.000  0.993 -0.001  0.000
       0.000 -0.000 -0.001  0.991 -0.000
       0.000 -0.001  0.000 -0.000  0.991

     Number of occupied Hubbard levels =   16.9048

     HUBBARD ENERGY =    0.2558  (Ry)

     total cpu time spent up to now is       28.0 secs

     total energy              =    -770.45859428 Ry
     estimated scf accuracy    <       0.21280249 Ry

     total magnetization       =    -0.00 Bohr mag/cell
     absolute magnetization    =     4.04 Bohr mag/cell

     iteration # 12     ecut=    49.00 Ry     beta= 0.20
     Davidson diagonalization with overlap

---- Real-time Memory Report at c_bands before calling an iterative solver
           113 MiB given to the printing process from OS
            71 MiB allocation reported by mallinfo(arena+hblkhd)
        238917 MiB available memory on the node where the printing process lives
------------------
     ethr =  3.33E-04,  avg # of iterations =  1.0

     =================== HUBBARD OCCUPATIONS ===================
     ------------------------ ATOM    1 ------------------------
     Tr[ns(  1)] (up, down, total) =   4.95329  3.44762  8.40091
     Atomic magnetic moment for atom   1 =   1.50567
     SPIN  1
     eigenvalues:
       0.989  0.989  0.990  0.992  0.992
     eigenvectors (columns):
      -0.000  0.000 -1.000  0.000  0.000
       0.242  0.396 -0.000  0.725 -0.509
       0.396 -0.242 -0.000 -0.509 -0.725
       0.756 -0.462 -0.000  0.267  0.380
       0.462  0.756 -0.000 -0.380  0.267
     occupation matrix ns (before diag.):
       0.990  0.000  0.000  0.000  0.000
       0.000  0.992  0.000 -0.000 -0.001
       0.000  0.000  0.992 -0.001  0.000
       0.000 -0.000 -0.001  0.990 -0.000
       0.000 -0.001  0.000 -0.000  0.990
     SPIN  2
     eigenvalues:
       0.248  0.248  0.983  0.983  0.984
     eigenvectors (columns):
       0.000 -0.000  0.000  0.000  1.000
       0.088 -0.788 -0.364  0.489  0.000
       0.788  0.088 -0.489 -0.364  0.000
      -0.605 -0.068 -0.636 -0.473  0.000
      -0.068  0.605 -0.473  0.636  0.000
     occupation matrix ns (before diag.):
       0.984  0.000  0.000  0.000  0.000
       0.000  0.521  0.000 -0.000  0.355
       0.000  0.000  0.521  0.355  0.000
       0.000 -0.000  0.355  0.711 -0.000
       0.000  0.355  0.000 -0.000  0.711
     ------------------------ ATOM    2 ------------------------
     Tr[ns(  2)] (up, down, total) =   3.56694  4.96121  8.52815
     Atomic magnetic moment for atom   2 =  -1.39427
     SPIN  1
     eigenvalues:
       0.305  0.305  0.986  0.986  0.986
     eigenvectors (columns):
      -0.000 -0.000  0.000  0.000 -1.000
      -0.040 -0.798 -0.355  0.485 -0.000
      -0.798  0.040 -0.485 -0.355 -0.000
       0.600 -0.030 -0.645 -0.472 -0.000
       0.030  0.600 -0.472  0.645 -0.000
     occupation matrix ns (before diag.):
       0.986  0.000  0.000  0.000  0.000
       0.000  0.550  0.000 -0.000  0.327
       0.000  0.000  0.550  0.327  0.000
       0.000 -0.000  0.327  0.740 -0.000
       0.000  0.327  0.000 -0.000  0.740
     SPIN  2
     eigenvalues:
       0.991  0.991  0.992  0.994  0.994
     eigenvectors (columns):
      -0.000  0.000 -1.000  0.000  0.000
       0.266  0.420 -0.000  0.647 -0.577
       0.420 -0.266 -0.000 -0.577 -0.647
       0.733 -0.464 -0.000  0.331  0.371
       0.464  0.733 -0.000 -0.371  0.331
     occupation matrix ns (before diag.):
       0.992  0.000  0.000  0.000  0.000
       0.000  0.993  0.000 -0.000 -0.001
       0.000  0.000  0.993 -0.001  0.000
       0.000 -0.000 -0.001  0.992 -0.000
       0.000 -0.001  0.000 -0.000  0.992

     Number of occupied Hubbard levels =   16.9291

     HUBBARD ENERGY =    0.2541  (Ry)

     total cpu time spent up to now is       28.5 secs

     total energy              =    -770.45611729 Ry
     estimated scf accuracy    <       0.14404038 Ry

     total magnetization       =    -0.00 Bohr mag/cell
     absolute magnetization    =     4.05 Bohr mag/cell

     iteration # 13     ecut=    49.00 Ry     beta= 0.20
     Davidson diagonalization with overlap

---- Real-time Memory Report at c_bands before calling an iterative solver
           113 MiB given to the printing process from OS
            71 MiB allocation reported by mallinfo(arena+hblkhd)
        238916 MiB available memory on the node where the printing process lives
------------------
     ethr =  2.25E-04,  avg # of iterations =  1.0

     =================== HUBBARD OCCUPATIONS ===================
     ------------------------ ATOM    1 ------------------------
     Tr[ns(  1)] (up, down, total) =   4.95614  3.45696  8.41311
     Atomic magnetic moment for atom   1 =   1.49918
     SPIN  1
     eigenvalues:
       0.990  0.990  0.991  0.993  0.993
     eigenvectors (columns):
      -0.000  0.000 -1.000  0.000 -0.000
       0.241  0.395 -0.000  0.727 -0.507
       0.395 -0.241 -0.000 -0.507 -0.727
       0.756 -0.462 -0.000  0.265  0.380
       0.462  0.756 -0.000 -0.380  0.265
     occupation matrix ns (before diag.):
       0.991  0.000  0.000  0.000  0.000
       0.000  0.992  0.000 -0.000 -0.001
       0.000  0.000  0.992 -0.001  0.000
       0.000 -0.000 -0.001  0.991 -0.000
       0.000 -0.001  0.000 -0.000  0.991
     SPIN  2
     eigenvalues:
       0.252  0.252  0.984  0.984  0.985
     eigenvectors (columns):
       0.000 -0.000  0.000  0.000  1.000
       0.079 -0.790 -0.363  0.489  0.000
       0.790  0.079 -0.489 -0.363  0.000
      -0.605 -0.060 -0.637 -0.473  0.000
      -0.060  0.605 -0.473  0.637  0.000
     occupation matrix ns (before diag.):
       0.985  0.000  0.000  0.000  0.000
       0.000  0.523  0.000 -0.000  0.354
       0.000  0.000  0.523  0.354  0.000
       0.000 -0.000  0.354  0.713 -0.000
       0.000  0.354  0.000 -0.000  0.713
     ------------------------ ATOM    2 ------------------------
     Tr[ns(  2)] (up, down, total) =   3.56715  4.96287  8.53002
     Atomic magnetic moment for atom   2 =  -1.39572
     SPIN  1
     eigenvalues:
       0.304  0.304  0.986  0.986  0.987
     eigenvectors (columns):
      -0.000 -0.000  0.000  0.000 -1.000
      -0.030 -0.800 -0.354  0.484 -0.000
      -0.800  0.030 -0.484 -0.354 -0.000
       0.599 -0.023 -0.646 -0.472 -0.000
       0.023  0.599 -0.472  0.646 -0.000
     occupation matrix ns (before diag.):
       0.987  0.000  0.000  0.000  0.000
       0.000  0.549  0.000 -0.000  0.328
       0.000  0.000  0.549  0.328  0.000
       0.000 -0.000  0.328  0.741 -0.000
       0.000  0.328  0.000 -0.000  0.741
     SPIN  2
     eigenvalues:
       0.991  0.991  0.992  0.994  0.994
     eigenvectors (columns):
      -0.000  0.000 -1.000  0.000  0.000
       0.264  0.418 -0.000  0.655 -0.571
       0.418 -0.264 -0.000 -0.571 -0.655
       0.735 -0.464 -0.000  0.325  0.373
       0.464  0.735 -0.000 -0.373  0.325
     occupation matrix ns (before diag.):
       0.992  0.000  0.000  0.000  0.000
       0.000  0.993  0.000 -0.000 -0.001
       0.000  0.000  0.993 -0.001  0.000
       0.000 -0.000 -0.001  0.992 -0.000
       0.000 -0.001  0.000 -0.000  0.992

     Number of occupied Hubbard levels =   16.9431

     HUBBARD ENERGY =    0.2567  (Ry)

     total cpu time spent up to now is       29.1 secs

     total energy              =    -770.46359462 Ry
     estimated scf accuracy    <       0.11448508 Ry

     total magnetization       =    -0.00 Bohr mag/cell
     absolute magnetization    =     4.05 Bohr mag/cell

     iteration # 14     ecut=    49.00 Ry     beta= 0.20
     Davidson diagonalization with overlap

---- Real-time Memory Report at c_bands before calling an iterative solver
           113 MiB given to the printing process from OS
            71 MiB allocation reported by mallinfo(arena+hblkhd)
        238916 MiB available memory on the node where the printing process lives
------------------
     ethr =  1.79E-04,  avg # of iterations =  1.0

     =================== HUBBARD OCCUPATIONS ===================
     ------------------------ ATOM    1 ------------------------
     Tr[ns(  1)] (up, down, total) =   4.95294  3.45521  8.40815
     Atomic magnetic moment for atom   1 =   1.49773
     SPIN  1
     eigenvalues:
       0.989  0.989  0.990  0.992  0.992
     eigenvectors (columns):
      -0.000  0.000 -1.000  0.000  0.000
       0.242  0.396 -0.000  0.726 -0.508
       0.396 -0.242 -0.000 -0.508 -0.726
       0.756 -0.462 -0.000  0.266  0.380
       0.462  0.756 -0.000 -0.380  0.266
     occupation matrix ns (before diag.):
       0.990  0.000  0.000  0.000  0.000
       0.000  0.992  0.000 -0.000 -0.001
       0.000  0.000  0.992 -0.001  0.000
       0.000 -0.000 -0.001  0.990 -0.000
       0.000 -0.001  0.000 -0.000  0.990
     SPIN  2
     eigenvalues:
       0.252  0.252  0.984  0.984  0.984
     eigenvectors (columns):
       0.000 -0.000  0.000  0.000  1.000
       0.077 -0.790 -0.362  0.488  0.000
       0.790  0.077 -0.488 -0.362  0.000
      -0.605 -0.059 -0.638 -0.473  0.000
      -0.059  0.605 -0.473  0.638  0.000
     occupation matrix ns (before diag.):
       0.984  0.000  0.000  0.000  0.000
       0.000  0.522  0.000 -0.000  0.353
       0.000  0.000  0.522  0.353  0.000
       0.000 -0.000  0.353  0.713 -0.000
       0.000  0.353  0.000 -0.000  0.713
     ------------------------ ATOM    2 ------------------------
     Tr[ns(  2)] (up, down, total) =   3.56000  4.96126  8.52126
     Atomic magnetic moment for atom   2 =  -1.40126
     SPIN  1
     eigenvalues:
       0.301  0.301  0.986  0.986  0.987
     eigenvectors (columns):
      -0.000 -0.000  0.000  0.000 -1.000
      -0.025 -0.800 -0.353  0.484 -0.000
      -0.800  0.025 -0.484 -0.353 -0.000
       0.599 -0.019 -0.647 -0.472 -0.000
       0.019  0.599 -0.472  0.647 -0.000
     occupation matrix ns (before diag.):
       0.987  0.000  0.000  0.000  0.000
       0.000  0.547  0.000 -0.000  0.329
       0.000  0.000  0.547  0.329  0.000
       0.000 -0.000  0.329  0.740 -0.000
       0.000  0.329  0.000 -0.000  0.740
     SPIN  2
     eigenvalues:
       0.991  0.991  0.992  0.994  0.994
     eigenvectors (columns):
      -0.000  0.000 -1.000  0.000  0.000
       0.261  0.416 -0.000  0.666 -0.562
       0.416 -0.261 -0.000 -0.562 -0.666
       0.737 -0.464 -0.000  0.317  0.375
       0.464  0.737 -0.000 -0.375  0.317
     occupation matrix ns (before diag.):
       0.992  0.000  0.000  0.000  0.000
       0.000  0.993  0.000 -0.000 -0.001
       0.000  0.000  0.993 -0.001  0.000
       0.000 -0.000 -0.001  0.992 -0.000
       0.000 -0.001  0.000 -0.000  0.992

     Number of occupied Hubbard levels =   16.9294

     HUBBARD ENERGY =    0.2109  (Ry)

     total cpu time spent up to now is       29.6 secs

     total energy              =    -770.45191513 Ry
     estimated scf accuracy    <       0.14756356 Ry

     total magnetization       =    -0.00 Bohr mag/cell
     absolute magnetization    =     4.05 Bohr mag/cell

     iteration # 15     ecut=    49.00 Ry     beta= 0.20
     Davidson diagonalization with overlap

---- Real-time Memory Report at c_bands before calling an iterative solver
           113 MiB given to the printing process from OS
            71 MiB allocation reported by mallinfo(arena+hblkhd)
        238911 MiB available memory on the node where the printing process lives
------------------
     ethr =  1.79E-04,  avg # of iterations =  2.8

     =================== HUBBARD OCCUPATIONS ===================
     ------------------------ ATOM    1 ------------------------
     Tr[ns(  1)] (up, down, total) =   4.96649  3.47364  8.44012
     Atomic magnetic moment for atom   1 =   1.49285
     SPIN  1
     eigenvalues:
       0.992  0.992  0.993  0.995  0.995
     eigenvectors (columns):
      -0.000  0.000 -1.000  0.000  0.000
       0.272  0.426 -0.000  0.620 -0.600
       0.426 -0.272 -0.000 -0.600 -0.620
       0.727 -0.464 -0.000  0.352  0.363
       0.464  0.727 -0.000 -0.363  0.352
     occupation matrix ns (before diag.):
       0.993  0.000  0.000  0.000  0.000
       0.000  0.994  0.000 -0.000 -0.001
       0.000  0.000  0.994 -0.001  0.000
       0.000 -0.000 -0.001  0.993 -0.000
       0.000 -0.001  0.000 -0.000  0.993
     SPIN  2
     eigenvalues:
       0.256  0.256  0.987  0.987  0.987
     eigenvectors (columns):
      -0.000 -0.000  0.000  0.000 -1.000
      -0.062 -0.795 -0.358  0.486 -0.000
      -0.795  0.062 -0.486 -0.358 -0.000
       0.602 -0.047 -0.642 -0.473 -0.000
       0.047  0.602 -0.473  0.642 -0.000
     occupation matrix ns (before diag.):
       0.987  0.000  0.000  0.000  0.000
       0.000  0.523  0.000 -0.000  0.352
       0.000  0.000  0.523  0.352  0.000
       0.000 -0.000  0.352  0.720 -0.000
       0.000  0.352  0.000 -0.000  0.720
     ------------------------ ATOM    2 ------------------------
     Tr[ns(  2)] (up, down, total) =   3.50301  4.96612  8.46913
     Atomic magnetic moment for atom   2 =  -1.46310
     SPIN  1
     eigenvalues:
       0.270  0.270  0.987  0.987  0.988
     eigenvectors (columns):
      -0.000  0.000 -0.000  0.000  1.000
      -0.006  0.805  0.348  0.481  0.000
      -0.805 -0.006  0.481 -0.348  0.000
       0.594  0.005  0.652 -0.471  0.000
       0.005 -0.594  0.471  0.652  0.000
     occupation matrix ns (before diag.):
       0.988  0.000  0.000  0.000  0.000
       0.000  0.523  0.000 -0.000  0.343
       0.000  0.000  0.523  0.343  0.000
       0.000 -0.000  0.343  0.734 -0.000
       0.000  0.343  0.000 -0.000  0.734
     SPIN  2
     eigenvalues:
       0.992  0.992  0.993  0.995  0.995
     eigenvectors (columns):
      -0.000  0.000 -1.000  0.000  0.000
       0.266  0.420 -0.000  0.647 -0.578
       0.420 -0.266 -0.000 -0.578 -0.647
       0.733 -0.464 -0.000  0.331  0.371
       0.464  0.733 -0.000 -0.371  0.331
     occupation matrix ns (before diag.):
       0.993  0.000  0.000  0.000  0.000
       0.000  0.994  0.000 -0.000 -0.001
       0.000  0.000  0.994 -0.001  0.000
       0.000 -0.000 -0.001  0.993 -0.000
       0.000 -0.001  0.000 -0.000  0.993

     Number of occupied Hubbard levels =   16.9093

     HUBBARD ENERGY =    0.2087  (Ry)

     total cpu time spent up to now is       30.3 secs

     total energy              =    -770.44899439 Ry
     estimated scf accuracy    <       0.05397303 Ry

     total magnetization       =    -0.00 Bohr mag/cell
     absolute magnetization    =     4.06 Bohr mag/cell

     iteration # 16     ecut=    49.00 Ry     beta= 0.20
     Davidson diagonalization with overlap

---- Real-time Memory Report at c_bands before calling an iterative solver
           113 MiB given to the printing process from OS
            71 MiB allocation reported by mallinfo(arena+hblkhd)
        238918 MiB available memory on the node where the printing process lives
------------------
     ethr =  8.43E-05,  avg # of iterations =  3.9

     =================== HUBBARD OCCUPATIONS ===================
     ------------------------ ATOM    1 ------------------------
     Tr[ns(  1)] (up, down, total) =   4.97301  3.62364  8.59666
     Atomic magnetic moment for atom   1 =   1.34937
     SPIN  1
     eigenvalues:
       0.994  0.994  0.994  0.996  0.996
     eigenvectors (columns):
      -0.000  0.000 -1.000  0.000  0.000
       0.260  0.415 -0.000  0.669 -0.558
       0.415 -0.260 -0.000 -0.558 -0.669
       0.738 -0.463 -0.000  0.314  0.376
       0.463  0.738 -0.000 -0.376  0.314
     occupation matrix ns (before diag.):
       0.994  0.000  0.000  0.000  0.000
       0.000  0.995  0.000 -0.000 -0.001
       0.000  0.000  0.995 -0.001  0.000
       0.000 -0.000 -0.001  0.994 -0.000
       0.000 -0.001  0.000 -0.000  0.994
     SPIN  2
     eigenvalues:
       0.328  0.328  0.989  0.989  0.990
     eigenvectors (columns):
      -0.000  0.000 -0.000  0.000  1.000
      -0.003  0.804  0.349  0.482  0.000
      -0.804 -0.003  0.482 -0.349  0.000
       0.595  0.002  0.651 -0.471  0.000
       0.002 -0.595  0.471  0.651  0.000
     occupation matrix ns (before diag.):
       0.990  0.000  0.000  0.000  0.000
       0.000  0.562  0.000 -0.000  0.316
       0.000  0.000  0.562  0.316  0.000
       0.000 -0.000  0.316  0.755 -0.000
       0.000  0.316  0.000 -0.000  0.755
     ------------------------ ATOM    2 ------------------------
     Tr[ns(  2)] (up, down, total) =   3.50890  4.97088  8.47979
     Atomic magnetic moment for atom   2 =  -1.46198
     SPIN  1
     eigenvalues:
       0.271  0.271  0.989  0.989  0.990
     eigenvectors (columns):
      -0.000  0.000 -0.000  0.000 -1.000
       0.009  0.806  0.346  0.480 -0.000
      -0.806  0.009  0.480 -0.346 -0.000
       0.592 -0.007  0.654 -0.471 -0.000
      -0.007 -0.592  0.471  0.654 -0.000
     occupation matrix ns (before diag.):
       0.990  0.000  0.000  0.000  0.000
       0.000  0.523  0.000 -0.000  0.343
       0.000  0.000  0.523  0.343  0.000
       0.000 -0.000  0.343  0.737 -0.000
       0.000  0.343  0.000 -0.000  0.737
     SPIN  2
     eigenvalues:
       0.993  0.993  0.994  0.995  0.995
     eigenvectors (columns):
      -0.000  0.000 -1.000  0.000  0.000
       0.254  0.409 -0.000  0.690 -0.540
       0.409 -0.254 -0.000 -0.540 -0.690
       0.744 -0.463 -0.000  0.297  0.379
       0.463  0.744 -0.000 -0.379  0.297
     occupation matrix ns (before diag.):
       0.994  0.000  0.000  0.000  0.000
       0.000  0.995  0.000 -0.000 -0.001
       0.000  0.000  0.995 -0.001  0.000
       0.000 -0.000 -0.001  0.994 -0.000
       0.000 -0.001  0.000 -0.000  0.994

     Number of occupied Hubbard levels =   17.0764

     HUBBARD ENERGY =    0.2150  (Ry)

     total cpu time spent up to now is       31.0 secs

     total energy              =    -770.45645404 Ry
     estimated scf accuracy    <       0.01488383 Ry

     total magnetization       =     0.00 Bohr mag/cell
     absolute magnetization    =     4.06 Bohr mag/cell

     iteration # 17     ecut=    49.00 Ry     beta= 0.20
     Davidson diagonalization with overlap

---- Real-time Memory Report at c_bands before calling an iterative solver
           113 MiB given to the printing process from OS
            71 MiB allocation reported by mallinfo(arena+hblkhd)
        238916 MiB available memory on the node where the printing process lives
------------------
     ethr =  2.33E-05,  avg # of iterations =  2.0

     =================== HUBBARD OCCUPATIONS ===================
     ------------------------ ATOM    1 ------------------------
     Tr[ns(  1)] (up, down, total) =   4.97329  3.63821  8.61150
     Atomic magnetic moment for atom   1 =   1.33509
     SPIN  1
     eigenvalues:
       0.994  0.994  0.994  0.996  0.996
     eigenvectors (columns):
      -0.000  0.000 -1.000  0.000  0.000
       0.268  0.422 -0.000  0.641 -0.583
       0.422 -0.268 -0.000 -0.583 -0.641
       0.732 -0.464 -0.000  0.336  0.370
       0.464  0.732 -0.000 -0.370  0.336
     occupation matrix ns (before diag.):
       0.994  0.000  0.000  0.000  0.000
       0.000  0.995  0.000 -0.000 -0.001
       0.000  0.000  0.995 -0.001  0.000
       0.000 -0.000 -0.001  0.994 -0.000
       0.000 -0.001  0.000 -0.000  0.994
     SPIN  2
     eigenvalues:
       0.335  0.335  0.990  0.990  0.990
     eigenvectors (columns):
      -0.000  0.000 -0.000  0.000 -1.000
       0.026  0.805  0.347  0.481 -0.000
      -0.805  0.026  0.481 -0.347 -0.000
       0.592 -0.019  0.653 -0.471 -0.000
      -0.019 -0.592  0.471  0.653 -0.000
     occupation matrix ns (before diag.):
       0.990  0.000  0.000  0.000  0.000
       0.000  0.565  0.000 -0.000  0.313
       0.000  0.000  0.565  0.313  0.000
       0.000 -0.000  0.313  0.759 -0.000
       0.000  0.313  0.000 -0.000  0.759
     ------------------------ ATOM    2 ------------------------
     Tr[ns(  2)] (up, down, total) =   3.50540  4.97049  8.47589
     Atomic magnetic moment for atom   2 =  -1.46510
     SPIN  1
     eigenvalues:
       0.269  0.269  0.989  0.989  0.989
     eigenvectors (columns):
      -0.000  0.000 -0.000  0.000 -1.000
       0.016  0.807  0.345  0.479 -0.000
      -0.807  0.016  0.479 -0.345 -0.000
       0.590 -0.012  0.655 -0.471 -0.000
      -0.012 -0.590  0.471  0.655 -0.000
     occupation matrix ns (before diag.):
       0.989  0.000  0.000  0.000  0.000
       0.000  0.520  0.000 -0.000  0.343
       0.000  0.000  0.520  0.343  0.000
       0.000 -0.000  0.343  0.738 -0.000
       0.000  0.343  0.000 -0.000  0.738
     SPIN  2
     eigenvalues:
       0.993  0.993  0.994  0.995  0.995
     eigenvectors (columns):
      -0.000  0.000 -1.000  0.000  0.000
       0.255  0.409 -0.000  0.688 -0.542
       0.409 -0.255 -0.000 -0.542 -0.688
       0.744 -0.463 -0.000  0.299  0.379
       0.463  0.744 -0.000 -0.379  0.299
     occupation matrix ns (before diag.):
       0.994  0.000  0.000  0.000  0.000
       0.000  0.995  0.000 -0.000 -0.001
       0.000  0.000  0.995 -0.001  0.000
       0.000 -0.000 -0.001  0.994 -0.000
       0.000 -0.001  0.000 -0.000  0.994

     Number of occupied Hubbard levels =   17.0874

     HUBBARD ENERGY =    0.2178  (Ry)

     total cpu time spent up to now is       31.6 secs

     total energy              =    -770.45587361 Ry
     estimated scf accuracy    <       0.01881044 Ry

     total magnetization       =    -0.00 Bohr mag/cell
     absolute magnetization    =     4.06 Bohr mag/cell

     iteration # 18     ecut=    49.00 Ry     beta= 0.20
     Davidson diagonalization with overlap

---- Real-time Memory Report at c_bands before calling an iterative solver
           113 MiB given to the printing process from OS
            71 MiB allocation reported by mallinfo(arena+hblkhd)
        238913 MiB available memory on the node where the printing process lives
------------------
     ethr =  2.33E-05,  avg # of iterations =  4.1

     =================== HUBBARD OCCUPATIONS ===================
     ------------------------ ATOM    1 ------------------------
     Tr[ns(  1)] (up, down, total) =   4.97542  3.67738  8.65280
     Atomic magnetic moment for atom   1 =   1.29804
     SPIN  1
     eigenvalues:
       0.994  0.994  0.995  0.996  0.996
     eigenvectors (columns):
      -0.000  0.000 -1.000  0.000  0.000
       0.259  0.413 -0.000  0.676 -0.553
       0.413 -0.259 -0.000 -0.553 -0.676
       0.740 -0.463 -0.000  0.309  0.378
       0.463  0.740 -0.000 -0.378  0.309
     occupation matrix ns (before diag.):
       0.995  0.000  0.000  0.000  0.000
       0.000  0.996  0.000 -0.000 -0.001
       0.000  0.000  0.996 -0.001  0.000
       0.000 -0.000 -0.001  0.995 -0.000
       0.000 -0.001  0.000 -0.000  0.995
     SPIN  2
     eigenvalues:
       0.353  0.353  0.990  0.990  0.991
     eigenvectors (columns):
      -0.000  0.000 -0.000  0.000 -1.000
       0.034  0.805  0.347  0.481 -0.000
      -0.805  0.034  0.481 -0.347 -0.000
       0.592 -0.025  0.653 -0.471 -0.000
      -0.025 -0.592  0.471  0.653 -0.000
     occupation matrix ns (before diag.):
       0.991  0.000  0.000  0.000  0.000
       0.000  0.577  0.000 -0.000  0.304
       0.000  0.000  0.577  0.304  0.000
       0.000 -0.000  0.304  0.766 -0.000
       0.000  0.304  0.000 -0.000  0.766
     ------------------------ ATOM    2 ------------------------
     Tr[ns(  2)] (up, down, total) =   3.54970  4.97247  8.52217
     Atomic magnetic moment for atom   2 =  -1.42277
     SPIN  1
     eigenvalues:
       0.290  0.290  0.990  0.990  0.990
     eigenvectors (columns):
      -0.000  0.000 -0.000  0.000 -1.000
[...]

     occupation numbers 
     1.0000   1.0000   1.0000   1.0000   1.0000   1.0000   1.0000   1.0000
     1.0000   1.0000   1.0000   1.0000   1.0000   1.0000   1.0000   1.0000
     1.0000   1.0000   1.0000   1.0000   1.0000   1.0000   1.0000   1.0000
     1.0000   1.0000   1.0000   1.0000   1.0000   1.0000   1.0000   1.0000

          k =-0.8974 0.5181 0.1689 (  7437 PWs)   bands (ev):

  -103.4765-102.3636 -62.4134 -62.4017 -62.3813 -61.1358 -61.1108 -61.1016
    -7.7961  -7.6259  -7.1919  -6.9360  -1.1698  -1.0893  -0.2771  -0.1500
    -0.0915   0.0561   0.0716   0.2645   1.2186   1.3777   2.1632   2.4255
     2.9757   3.1897   3.4029   3.6697   3.8563   4.0341   4.2960   4.8448

     occupation numbers 
     1.0000   1.0000   1.0000   1.0000   1.0000   1.0000   1.0000   1.0000
     1.0000   1.0000   1.0000   1.0000   1.0000   1.0000   1.0000   1.0000
     1.0000   1.0000   1.0000   1.0000   1.0000   1.0000   1.0000   1.0000
     1.0000   1.0000   1.0000   1.0000   1.0000   1.0000   1.0000   1.0000

          k = 1.7949 2.0726-0.0844 (  7434 PWs)   bands (ev):

  -103.4764-102.3636 -62.4144 -62.3990 -62.3888 -61.1245 -61.1199 -61.1099
    -7.2743  -7.0783  -7.0530  -6.7665  -1.1466  -0.8555  -0.2763  -0.1108
    -0.0920  -0.0087   0.0417   0.1726   0.8054   0.9559   1.6694   1.8267
     2.0972   2.2264   2.9269   2.9753   2.9924   3.4972   3.8088   4.4296

     occupation numbers 
     1.0000   1.0000   1.0000   1.0000   1.0000   1.0000   1.0000   1.0000
     1.0000   1.0000   1.0000   1.0000   1.0000   1.0000   1.0000   1.0000
     1.0000   1.0000   1.0000   1.0000   1.0000   1.0000   1.0000   1.0000
     1.0000   1.0000   1.0000   1.0000   1.0000   1.0000   1.0000   1.0000

          k = 0.8974 1.5544 0.0000 (  7426 PWs)   bands (ev):

  -103.4759-102.3631 -62.4069 -62.3920 -62.3895 -61.1161 -61.1127 -61.1107
    -7.2745  -7.0686  -7.0628  -6.7663  -1.1208  -0.8565  -0.2818  -0.1052
    -0.0905  -0.0130   0.0611   0.1769   0.8033   0.9703   1.6556   1.8602
     2.0577   2.2519   2.9152   2.9681   2.9880   3.5121   3.8187   4.4303

     occupation numbers 
     1.0000   1.0000   1.0000   1.0000   1.0000   1.0000   1.0000   1.0000
     1.0000   1.0000   1.0000   1.0000   1.0000   1.0000   1.0000   1.0000
     1.0000   1.0000   1.0000   1.0000   1.0000   1.0000   1.0000   1.0000
     1.0000   1.0000   1.0000   1.0000   1.0000   1.0000   1.0000   1.0000

          k = 1.7949-1.0363-0.3377 (  7422 PWs)   bands (ev):

  -103.4758-102.3630 -62.4037 -62.3990 -62.3835 -61.1204 -61.1194 -61.0977
    -7.1939  -7.1363  -7.0202  -6.8092  -1.1316  -0.8540  -0.6411  -0.5322
     0.0645   0.1839   0.2112   0.3873   0.8509   0.9417   1.0239   1.1424
     2.8130   3.0023   3.0540   3.1584   3.2987   3.3411   4.3487   4.6803

     occupation numbers 
     1.0000   1.0000   1.0000   1.0000   1.0000   1.0000   1.0000   1.0000
     1.0000   1.0000   1.0000   1.0000   1.0000   1.0000   1.0000   1.0000
     1.0000   1.0000   1.0000   1.0000   1.0000   1.0000   1.0000   1.0000
     1.0000   1.0000   1.0000   1.0000   1.0000   1.0000   1.0000   1.0000

          k = 0.0000 0.0000 0.2533 (  7445 PWs)   bands (ev):

  -103.4766-102.3638 -62.4066 -62.3923 -62.3923 -61.1146 -61.1142 -61.1142
    -8.2019  -8.0416  -7.3405  -7.1458  -1.2043  -1.2043  -0.4804  -0.2790
     0.0043   0.0043   0.1749   0.1749   1.3069   1.6995   3.3903   3.3903
     3.4222   4.2632   4.5282   4.5282   4.6999   4.6999   4.9444   4.9444

     occupation numbers 
     1.0000   1.0000   1.0000   1.0000   1.0000   1.0000   1.0000   1.0000
     1.0000   1.0000   1.0000   1.0000   1.0000   1.0000   1.0000   1.0000
     1.0000   1.0000   1.0000   1.0000   1.0000   1.0000   1.0000   1.0000
     1.0000   1.0000   1.0000   1.0000   1.0000   1.0000   1.0000   1.0000

          k = 2.6923 1.5544 0.0000 (  7424 PWs)   bands (ev):

  -103.4756-102.3628 -62.4048 -62.3988 -62.3680 -61.1271 -61.1069 -61.0885
    -7.7941  -7.6296  -7.1875  -6.9385  -1.1683  -1.0844  -0.2609  -0.1365
    -0.0792   0.0790   0.1045   0.2898   1.2193   1.3718   2.2037   2.4277
     2.9885   3.1893   3.3043   3.6748   3.9044   4.0300   4.3126   4.8481

     occupation numbers 
     1.0000   1.0000   1.0000   1.0000   1.0000   1.0000   1.0000   1.0000
     1.0000   1.0000   1.0000   1.0000   1.0000   1.0000   1.0000   1.0000
     1.0000   1.0000   1.0000   1.0000   1.0000   1.0000   1.0000   1.0000
     1.0000   1.0000   1.0000   1.0000   1.0000   1.0000   1.0000   1.0000

          k = 1.7949 1.0363 0.0844 (  7422 PWs)   bands (ev):

  -103.4758-102.3629 -62.4024 -62.3939 -62.3906 -61.1180 -61.1122 -61.1085
    -7.1938  -7.1366  -7.0199  -6.8093  -1.1225  -0.8461  -0.6477  -0.5473
     0.0391   0.1873   0.2129   0.4126   0.8381   0.9588   1.0079   1.1282
     2.8229   3.0058   3.0245   3.1525   3.3317   3.3437   4.3371   4.6845

     occupation numbers 
     1.0000   1.0000   1.0000   1.0000   1.0000   1.0000   1.0000   1.0000
     1.0000   1.0000   1.0000   1.0000   1.0000   1.0000   1.0000   1.0000
     1.0000   1.0000   1.0000   1.0000   1.0000   1.0000   1.0000   1.0000
     1.0000   1.0000   1.0000   1.0000   1.0000   1.0000   1.0000   1.0000

          k = 2.6923-1.5544-0.2533 (  7422 PWs)   bands (ev):

  -103.4755-102.3627 -62.3967 -62.3954 -62.3749 -61.1186 -61.1047 -61.0951
    -7.7930  -7.6316  -7.1852  -6.9398  -1.1405  -1.0851  -0.2527  -0.1257
    -0.0935   0.0725   0.0830   0.2810   1.2329   1.3654   2.1676   2.4475
     2.9668   3.1960   3.3135   3.6746   4.0321   4.0524   4.1864   4.8510

     occupation numbers 
     1.0000   1.0000   1.0000   1.0000   1.0000   1.0000   1.0000   1.0000
     1.0000   1.0000   1.0000   1.0000   1.0000   1.0000   1.0000   1.0000
     1.0000   1.0000   1.0000   1.0000   1.0000   1.0000   1.0000   1.0000
     1.0000   1.0000   1.0000   1.0000   1.0000   1.0000   1.0000   1.0000

          k = 1.7949-2.0726-0.1689 (  7414 PWs)   bands (ev):

  -103.4753-102.3624 -62.3990 -62.3879 -62.3789 -61.1181 -61.1000 -61.0992
    -7.2738  -7.0833  -7.0479  -6.7667  -1.1102  -0.8283  -0.2661  -0.1061
    -0.0822   0.0155   0.0426   0.1941   0.8096   0.9519   1.6820   1.7996
     2.1668   2.1716   2.9536   2.9745   3.0046   3.4880   3.8077   4.4325

     occupation numbers 
     1.0000   1.0000   1.0000   1.0000   1.0000   1.0000   1.0000   1.0000
     1.0000   1.0000   1.0000   1.0000   1.0000   1.0000   1.0000   1.0000
     1.0000   1.0000   1.0000   1.0000   1.0000   1.0000   1.0000   1.0000
     1.0000   1.0000   1.0000   1.0000   1.0000   1.0000   1.0000   1.0000

          k = 0.0000 0.0000-0.5066 (  7440 PWs)   bands (ev):

  -103.4764-102.3635 -62.4239 -62.3795 -62.3795 -61.1329 -61.1012 -61.1012
    -8.1985  -8.0471  -7.3309  -7.1533  -1.1911  -1.1911  -0.4873  -0.3366
     0.0253   0.0253   0.1974   0.1974   1.3755   1.5505   3.3931   3.3931
     3.7747   3.9327   4.5307   4.5307   4.6966   4.6966   4.9495   4.9495

     occupation numbers 
     1.0000   1.0000   1.0000   1.0000   1.0000   1.0000   1.0000   1.0000
     1.0000   1.0000   1.0000   1.0000   1.0000   1.0000   1.0000   1.0000
     1.0000   1.0000   1.0000   1.0000   1.0000   1.0000   1.0000   1.0000
     1.0000   1.0000   1.0000   1.0000   1.0000   1.0000   1.0000   1.0000

 ------ SPIN DOWN ----------


          k = 0.0000 0.0000 0.0000 (  7403 PWs)   bands (ev):

  -103.7532-102.1298 -62.6533 -62.6523 -62.6523 -60.8660 -60.8660 -60.8524
    -8.2214  -8.0050  -7.3553  -7.1166  -1.8847  -1.8847  -0.9921  -0.6873
    -0.6873   0.1662   0.8836   0.8836   1.2089   2.0194   3.2312   3.3732
     3.3732   4.4421   4.5090   4.5090   4.7362   4.7362   4.8791   4.8791

     occupation numbers 
     1.0000   1.0000   1.0000   1.0000   1.0000   1.0000   1.0000   1.0000
     1.0000   1.0000   1.0000   1.0000   1.0000   1.0000   1.0000   1.0000
     1.0000   1.0000   1.0000   1.0000   1.0000   1.0000   1.0000   1.0000
     1.0000   1.0000   1.0000   1.0000   1.0000   1.0000   1.0000   1.0000

          k =-0.8974-0.5181 0.0844 (  7427 PWs)   bands (ev):

  -103.7549-102.1315 -62.6908 -62.6758 -62.6508 -60.9060 -60.8801 -60.8650
    -7.8126  -7.5946  -7.2185  -6.9142  -1.8876  -1.7614  -0.9192  -0.7611
    -0.6609   0.4051   0.6632   0.9532   1.1320   1.5422   2.2645   2.3411
     3.0334   3.1649   3.3934   3.6289   3.7561   4.0673   4.3481   4.7923

     occupation numbers 
     1.0000   1.0000   1.0000   1.0000   1.0000   1.0000   1.0000   1.0000
     1.0000   1.0000   1.0000   1.0000   1.0000   1.0000   1.0000   1.0000
     1.0000   1.0000   1.0000   1.0000   1.0000   1.0000   1.0000   1.0000
     1.0000   1.0000   1.0000   1.0000   1.0000   1.0000   1.0000   1.0000

          k = 1.7949 1.0363-0.1689 (  7408 PWs)   bands (ev):

  -103.7540-102.1306 -62.6776 -62.6613 -62.6613 -60.8826 -60.8760 -60.8753
    -7.2036  -7.1840  -6.9939  -6.7899  -1.8512  -1.4714  -1.1522  -0.6606
    -0.4939  -0.2233   0.5496   0.8348   0.9586   1.1221   1.1462   1.4672
     2.8264   2.9812   3.0189   3.1869   3.3180   3.3682   4.2574   4.6190

     occupation numbers 
     1.0000   1.0000   1.0000   1.0000   1.0000   1.0000   1.0000   1.0000
     1.0000   1.0000   1.0000   1.0000   1.0000   1.0000   1.0000   1.0000
     1.0000   1.0000   1.0000   1.0000   1.0000   1.0000   1.0000   1.0000
     1.0000   1.0000   1.0000   1.0000   1.0000   1.0000   1.0000   1.0000

          k =-0.8974 0.5181 0.1689 (  7437 PWs)   bands (ev):

  -103.7555-102.1320 -62.6940 -62.6797 -62.6619 -60.9095 -60.8853 -60.8754
    -7.8121  -7.5964  -7.2169  -6.9153  -1.8949  -1.7696  -0.9291  -0.7805
    -0.6664   0.3983   0.6492   0.9473   1.1303   1.5413   2.2083   2.3785
     3.0208   3.1627   3.3764   3.6277   3.8560   4.0671   4.2831   4.7905

     occupation numbers 
     1.0000   1.0000   1.0000   1.0000   1.0000   1.0000   1.0000   1.0000
     1.0000   1.0000   1.0000   1.0000   1.0000   1.0000   1.0000   1.0000
     1.0000   1.0000   1.0000   1.0000   1.0000   1.0000   1.0000   1.0000
     1.0000   1.0000   1.0000   1.0000   1.0000   1.0000   1.0000   1.0000

          k = 1.7949 2.0726-0.0844 (  7434 PWs)   bands (ev):

  -103.7554-102.1320 -62.6924 -62.6796 -62.6695 -60.8988 -60.8938 -60.8836
    -7.2946  -7.1037  -7.0412  -6.7467  -1.8420  -1.5470  -0.9106  -0.7616
    -0.6700   0.4010   0.4198   0.6479   0.7967   1.3426   1.5784   1.9489
     2.0970   2.2767   2.8948   2.9815   3.0315   3.4890   3.7490   4.3765

     occupation numbers 
     1.0000   1.0000   1.0000   1.0000   1.0000   1.0000   1.0000   1.0000
     1.0000   1.0000   1.0000   1.0000   1.0000   1.0000   1.0000   1.0000
     1.0000   1.0000   1.0000   1.0000   1.0000   1.0000   1.0000   1.0000
     1.0000   1.0000   1.0000   1.0000   1.0000   1.0000   1.0000   1.0000

          k = 0.8974 1.5544 0.0000 (  7426 PWs)   bands (ev):

  -103.7550-102.1316 -62.6849 -62.6726 -62.6701 -60.8905 -60.8866 -60.8844
    -7.2947  -7.1020  -7.0430  -6.7466  -1.8153  -1.5480  -0.9119  -0.7571
    -0.6619   0.4049   0.4200   0.6513   0.7996   1.3547   1.5745   1.9941
     2.0424   2.2941   2.8882   2.9709   3.0249   3.5074   3.7567   4.3763

     occupation numbers 
     1.0000   1.0000   1.0000   1.0000   1.0000   1.0000   1.0000   1.0000
     1.0000   1.0000   1.0000   1.0000   1.0000   1.0000   1.0000   1.0000
     1.0000   1.0000   1.0000   1.0000   1.0000   1.0000   1.0000   1.0000
     1.0000   1.0000   1.0000   1.0000   1.0000   1.0000   1.0000   1.0000

          k = 1.7949-1.0363-0.3377 (  7422 PWs)   bands (ev):

  -103.7548-102.1314 -62.6826 -62.6797 -62.6632 -60.8941 -60.8934 -60.8719
    -7.2038  -7.1849  -6.9940  -6.7899  -1.8554  -1.5039  -1.1569  -0.6414
    -0.5472  -0.2239   0.5538   0.8474   0.9242   1.0729   1.1711   1.4814
     2.8043   2.9774   3.0770   3.1957   3.2949   3.3103   4.2821   4.6153

     occupation numbers 
     1.0000   1.0000   1.0000   1.0000   1.0000   1.0000   1.0000   1.0000
     1.0000   1.0000   1.0000   1.0000   1.0000   1.0000   1.0000   1.0000
     1.0000   1.0000   1.0000   1.0000   1.0000   1.0000   1.0000   1.0000
     1.0000   1.0000   1.0000   1.0000   1.0000   1.0000   1.0000   1.0000

          k = 0.0000 0.0000 0.2533 (  7445 PWs)   bands (ev):

  -103.7557-102.1322 -62.6845 -62.6730 -62.6730 -60.8892 -60.8879 -60.8879
    -8.2194  -8.0100  -7.3473  -7.1226  -1.9270  -1.9270  -1.0351  -0.7213
    -0.7213   0.1338   0.8515   0.8515   1.2059   1.9168   3.3546   3.3546
     3.4284   4.2750   4.5103   4.5103   4.7317   4.7317   4.8759   4.8759

     occupation numbers 
     1.0000   1.0000   1.0000   1.0000   1.0000   1.0000   1.0000   1.0000
     1.0000   1.0000   1.0000   1.0000   1.0000   1.0000   1.0000   1.0000
     1.0000   1.0000   1.0000   1.0000   1.0000   1.0000   1.0000   1.0000
     1.0000   1.0000   1.0000   1.0000   1.0000   1.0000   1.0000   1.0000

          k = 2.6923 1.5544 0.0000 (  7424 PWs)   bands (ev):

  -103.7546-102.1313 -62.6855 -62.6767 -62.6486 -60.9008 -60.8814 -60.8622
    -7.8105  -7.5998  -7.2126  -6.9173  -1.8936  -1.7642  -0.9115  -0.7581
    -0.6419   0.4101   0.6689   0.9710   1.1259   1.5408   2.2759   2.3543
     3.0506   3.1624   3.2608   3.6324   3.9152   4.0632   4.2892   4.7942

     occupation numbers 
     1.0000   1.0000   1.0000   1.0000   1.0000   1.0000   1.0000   1.0000
     1.0000   1.0000   1.0000   1.0000   1.0000   1.0000   1.0000   1.0000
     1.0000   1.0000   1.0000   1.0000   1.0000   1.0000   1.0000   1.0000
     1.0000   1.0000   1.0000   1.0000   1.0000   1.0000   1.0000   1.0000

          k = 1.7949 1.0363 0.0844 (  7422 PWs)   bands (ev):

  -103.7549-102.1314 -62.6811 -62.6738 -62.6713 -60.8918 -60.8859 -60.8829
    -7.2038  -7.1848  -6.9940  -6.7900  -1.8462  -1.4914  -1.1755  -0.6680
    -0.5204  -0.2311   0.5451   0.8221   0.9403   1.1008   1.1597   1.4627
     2.8122   2.9794   3.0499   3.1913   3.3128   3.3269   4.2711   4.6192

     occupation numbers 
     1.0000   1.0000   1.0000   1.0000   1.0000   1.0000   1.0000   1.0000
     1.0000   1.0000   1.0000   1.0000   1.0000   1.0000   1.0000   1.0000
     1.0000   1.0000   1.0000   1.0000   1.0000   1.0000   1.0000   1.0000
     1.0000   1.0000   1.0000   1.0000   1.0000   1.0000   1.0000   1.0000

          k = 2.6923-1.5544-0.2533 (  7422 PWs)   bands (ev):

  -103.7546-102.1311 -62.6774 -62.6735 -62.6555 -60.8923 -60.8791 -60.8689
    -7.8098  -7.6015  -7.2107  -6.9183  -1.8651  -1.7650  -0.9064  -0.7709
    -0.6495   0.4137   0.6600   0.9634   1.1260   1.5452   2.2146   2.3960
     3.0359   3.1701   3.2668   3.6319   4.0649   4.0656   4.1615   4.7964

     occupation numbers 
     1.0000   1.0000   1.0000   1.0000   1.0000   1.0000   1.0000   1.0000
     1.0000   1.0000   1.0000   1.0000   1.0000   1.0000   1.0000   1.0000
     1.0000   1.0000   1.0000   1.0000   1.0000   1.0000   1.0000   1.0000
     1.0000   1.0000   1.0000   1.0000   1.0000   1.0000   1.0000   1.0000

          k = 1.7949-2.0726-0.1689 (  7414 PWs)   bands (ev):

  -103.7543-102.1308 -62.6788 -62.6668 -62.6595 -60.8918 -60.8737 -60.8736
    -7.2942  -7.1051  -7.0395  -6.7468  -1.8035  -1.5189  -0.9005  -0.7494
    -0.6535   0.4058   0.4267   0.6450   0.8148   1.3451   1.5798   1.9277
     2.1379   2.2587   2.9047   3.0103   3.0326   3.4763   3.7488   4.3796

     occupation numbers 
     1.0000   1.0000   1.0000   1.0000   1.0000   1.0000   1.0000   1.0000
     1.0000   1.0000   1.0000   1.0000   1.0000   1.0000   1.0000   1.0000
     1.0000   1.0000   1.0000   1.0000   1.0000   1.0000   1.0000   1.0000
     1.0000   1.0000   1.0000   1.0000   1.0000   1.0000   1.0000   1.0000

          k = 0.0000 0.0000-0.5066 (  7440 PWs)   bands (ev):

  -103.7555-102.1319 -62.7019 -62.6601 -62.6601 -60.9074 -60.8749 -60.8749
    -8.2171  -8.0146  -7.3388  -7.1289  -1.9137  -1.9137  -1.0713  -0.6999
    -0.6999   0.1137   0.8737   0.8737   1.2020   1.8318   3.3577   3.3577
     3.7717   3.9540   4.5124   4.5124   4.7280   4.7280   4.8814   4.8814

     occupation numbers 
     1.0000   1.0000   1.0000   1.0000   1.0000   1.0000   1.0000   1.0000
     1.0000   1.0000   1.0000   1.0000   1.0000   1.0000   1.0000   1.0000
     1.0000   1.0000   1.0000   1.0000   1.0000   1.0000   1.0000   1.0000
     1.0000   1.0000   1.0000   1.0000   1.0000   1.0000   1.0000   1.0000

     highest occupied level (ev):     4.9495

!    total energy              =    -770.45561935 Ry
     estimated scf accuracy    <          2.8E-11 Ry

     The total energy is the sum of the following terms:
     one-electron contribution =    -762.62867577 Ry
     hartree contribution      =     397.02572089 Ry
     xc contribution           =    -115.34539299 Ry
     ewald contribution        =    -289.72261652 Ry
     Hubbard energy            =       0.21534503 Ry

     total magnetization       =    -0.00 Bohr mag/cell
     absolute magnetization    =     4.06 Bohr mag/cell

     convergence has been achieved in  57 iterations

     Writing all to output data dir ./tmp/NiI2.save/ :
     XML data file, charge density, pseudopotentials, collected wavefunctions

     init_run     :      1.35s CPU      1.56s WALL (       1 calls)
     electrons    :     39.12s CPU     40.46s WALL (       1 calls)

     Called by init_run:
     wfcinit      :      0.22s CPU      0.32s WALL (       1 calls)
     wfcinit:atom :      0.00s CPU      0.00s WALL (       4 calls)
     wfcinit:wfcr :      0.21s CPU      0.30s WALL (       4 calls)
     potinit      :      0.09s CPU      0.14s WALL (       1 calls)
     hinit0       :      0.89s CPU      0.95s WALL (       1 calls)

     Called by electrons:
     c_bands      :     29.15s CPU     29.89s WALL (      57 calls)
     sum_band     :      5.08s CPU      5.13s WALL (      57 calls)
     v_of_rho     :      4.33s CPU      4.77s WALL (      58 calls)
     v_h          :      0.02s CPU      0.05s WALL (      58 calls)
     v_xc         :      4.31s CPU      4.71s WALL (      58 calls)
     mix_rho      :      0.15s CPU      0.17s WALL (      57 calls)

     Called by c_bands:
     init_us_2    :      0.08s CPU      0.09s WALL (     464 calls)
     cegterg      :     25.91s CPU     26.14s WALL (     228 calls)

     Called by sum_band:
     sum_band:wei :      0.00s CPU      0.00s WALL (      57 calls)
     sum_band:loo :      4.67s CPU      4.70s WALL (      57 calls)
     sum_band:buf :      0.00s CPU      0.00s WALL (     228 calls)
     sum_band:ini :      0.04s CPU      0.04s WALL (     228 calls)

     Called by *egterg:
     cdiaghg      :      1.53s CPU      1.63s WALL (    1038 calls)
     cegterg:over :      0.19s CPU      0.19s WALL (     810 calls)
     cegterg:upda :      0.08s CPU      0.08s WALL (     810 calls)
     cegterg:last :      0.11s CPU      0.11s WALL (     443 calls)
     h_psi        :     24.09s CPU     24.31s WALL (    1042 calls)
     g_psi        :      0.01s CPU      0.01s WALL (     810 calls)

     Called by h_psi:
     h_psi:calbec :      0.25s CPU      0.25s WALL (    1042 calls)
     vloc_psi     :     23.54s CPU     23.75s WALL (    1042 calls)
                                        0.00s GPU  (    1042 calls)
     add_vuspsi   :      0.19s CPU      0.19s WALL (    1042 calls)
     vhpsi        :      0.09s CPU      0.09s WALL (    1042 calls)

     General routines
     calbec       :      0.33s CPU      0.33s WALL (    2316 calls)
     fft          :      1.74s CPU      1.86s WALL (    1100 calls)
     ffts         :      0.09s CPU      0.10s WALL (     114 calls)
     fftw         :     25.56s CPU     25.78s WALL (   43666 calls)

     Parallel routines

     Hubbard U routines
     new_ns       :      0.03s CPU      0.03s WALL (      57 calls)
     vhpsi        :      0.09s CPU      0.09s WALL (    1042 calls)

     PWSCF        :     46.40s CPU   1m 0.82s WALL


   This run was terminated on:   9:19:37  20Feb2026            

=------------------------------------------------------------------------------=
   JOB DONE.
=------------------------------------------------------------------------------=
