
     Program PWSCF v.7.5 starts on 20Feb2026 at  9: 6:32 
        Git branch: HEAD
        Last git commit: 770a0b2d12928a67048e2f3da8d10d057e52179e
        Last git commit date: Tue Aug 19 09:57:12 2025 +0000
        Last git commit subject: Merge branch 'QE-7.5-RC' into 'master'

     This program is part of the open-source Quantum ESPRESSO suite
     for quantum simulation of materials; please cite
         "P. Giannozzi et al., J. Phys.:Condens. Matter 21 395502 (2009);
         "P. Giannozzi et al., J. Phys.:Condens. Matter 29 465901 (2017);
         "P. Giannozzi et al., J. Chem. Phys. 152 154105 (2020);
          URL http://www.quantum-espresso.org", 
     in publications or presentations arising from this work. More details at
     http://www.quantum-espresso.org/quote

     Parallel version (MPI), running on   256 processors

     MPI processes distributed on     8 nodes
     239987 MiB available memory on the printing compute node when the environment starts

     Waiting for input...
     Reading input from standard input

     Current dimensions of program PWSCF are:
     Max number of different atomic species (ntypx) = 10
     Max number of k-points (npk) =  40000
     Max angular momentum in pseudopotentials (lmaxx) =  4

     K-points division:     npool     =       8
     R & G space division:  proc/nbgrp/npool/nimage =      32
     Subspace diagonalization in iterative solution of the eigenvalue problem:
     a serial algorithm will be used


     Parallelization info
     --------------------
     sticks:   dense  smooth     PW     G-vecs:    dense   smooth      PW
     Min          96      96     29                 1853     1853     311
     Max          97      97     30                 1855     1855     313
     Sum        3099    3099    945                59333    59333    9983

     Using Slab Decomposition



     bravais-lattice index     =            5
     lattice parameter (alat)  =      26.8360  a.u.
     unit-cell volume          =    1281.9023 (a.u.)^3
     number of atoms/cell      =            6
     number of atomic types    =            3
     number of electrons       =        64.00
     number of Kohn-Sham states=           38
     kinetic-energy cutoff     =      49.0000  Ry
     charge density cutoff     =     196.0000  Ry
     scf convergence threshold =      1.0E-10
     mixing beta               =       0.2000
     number of iterations used =            8  plain     mixing
     Exchange-correlation= PBESOL
                           (   1   4  10   8   0   0   0)
     Hubbard projectors: ortho-atomic
     Hubbard parameters of DFT+U (Dudarev formulation) in eV:
     U(Ni1-3d) =  6.0050
     U(Ni2-3d) =  6.0050

     Internal variables: lda_plus_u =T, lda_plus_u_kind = 0

     Internal variables: orbital_resolved =F, hub_pot_fix =F, apply_U = F

     celldm(1)=  26.836001  celldm(2)=   0.000000  celldm(3)=   0.000000
     celldm(4)=   0.961200  celldm(5)=   0.000000  celldm(6)=   0.000000

     crystal axes: (cart. coord. in units of alat)
               a(1) = (   0.139284  -0.080416   0.986982 )  
               a(2) = (   0.000000   0.160831   0.986982 )  
               a(3) = (  -0.139284  -0.080416   0.986982 )  

     reciprocal axes: (cart. coord. in units 2 pi/alat)
               b(1) = (  3.589791 -2.072567  0.337730 )  
               b(2) = (  0.000000  4.145133  0.337730 )  
               b(3) = ( -3.589791 -2.072567  0.337730 )  


     PseudoPot. # 1 for Ni read from file:
     ./Pseudos/Ni_pbesol.upf
     MD5 check sum: 3ec56ad6bf78c9cc1bbec815420e1c7d
     Pseudo is Norm-conserving + core correction, Zval = 18.0
     Generated using ONCVPSP code by D. R. Hamann
     Using radial grid of 1356 points,  6 beta functions with: 
                l(1) =   0
                l(2) =   0
                l(3) =   1
                l(4) =   1
                l(5) =   2
                l(6) =   2

     PseudoPot. # 2 for Ni read from file:
     ./Pseudos/Ni_pbesol.upf
     MD5 check sum: 3ec56ad6bf78c9cc1bbec815420e1c7d
     Pseudo is Norm-conserving + core correction, Zval = 18.0
     Generated using ONCVPSP code by D. R. Hamann
     Using radial grid of 1356 points,  6 beta functions with: 
                l(1) =   0
                l(2) =   0
                l(3) =   1
                l(4) =   1
                l(5) =   2
                l(6) =   2

     PseudoPot. # 3 for I  read from file:
     ./Pseudos/I_pbesol.upf
     MD5 check sum: 80ed5ceb2eb9c553cfb6760a299d9c5b
     Pseudo is Norm-conserving + core correction, Zval =  7.0
     Generated using ONCVPSP code by D. R. Hamann
     Using radial grid of 1182 points,  6 beta functions with: 
                l(1) =   0
                l(2) =   0
                l(3) =   1
                l(4) =   1
                l(5) =   2
                l(6) =   2

     atomic species   valence    mass     pseudopotential
     Ni1              18.00    58.69340     Ni( 1.00)
     Ni2              18.00    58.69340     Ni( 1.00)
     I                 7.00   126.90447     I ( 1.00)

     Starting magnetic structure 
     atomic species   magnetization
     Ni1             0.600
     Ni2            -0.600
     I               0.000

     12 Sym. Ops., with inversion, found


                                    s                        frac. trans.

      isym =  1     identity                                     

 cryst.   s( 1) = (     1          0          0      )
                  (     0          1          0      )
                  (     0          0          1      )

 cart.    s( 1) = (  1.0000000  0.0000000  0.0000000 )
                  (  0.0000000  1.0000000  0.0000000 )
                  ( -0.0000000 -0.0000000  1.0000000 )


      isym =  2     180 deg rotation - cart. axis [1,0,0]        

 cryst.   s( 2) = (     0          0         -1      )
                  (     0         -1          0      )
                  (    -1          0          0      )

 cart.    s( 2) = (  1.0000000 -0.0000000 -0.0000000 )
                  (  0.0000000 -1.0000000 -0.0000000 )
                  ( -0.0000000  0.0000000 -1.0000000 )


      isym =  3     120 deg rotation - cryst. axis [0,0,1]       

 cryst.   s( 3) = (     0          1          0      )
                  (     0          0          1      )
                  (     1          0          0      )

 cart.    s( 3) = ( -0.5000000 -0.8660254 -0.0000000 )
                  (  0.8660254 -0.5000000 -0.0000000 )
                  (  0.0000000  0.0000000  1.0000000 )


      isym =  4     120 deg rotation - cryst. axis [0,0,-1]      

 cryst.   s( 4) = (     0          0          1      )
                  (     1          0          0      )
                  (     0          1          0      )

 cart.    s( 4) = ( -0.5000000  0.8660254  0.0000000 )
                  ( -0.8660254 -0.5000000 -0.0000000 )
                  (  0.0000000 -0.0000000  1.0000000 )


      isym =  5     180 deg rotation - cryst. axis [0,1,0]       

 cryst.   s( 5) = (     0         -1          0      )
                  (    -1          0          0      )
                  (     0          0         -1      )

 cart.    s( 5) = ( -0.5000000 -0.8660254 -0.0000000 )
                  ( -0.8660254  0.5000000  0.0000000 )
                  (  0.0000000  0.0000000 -1.0000000 )


      isym =  6     180 deg rotation - cryst. axis [1,1,0]       

 cryst.   s( 6) = (    -1          0          0      )
                  (     0          0         -1      )
                  (     0         -1          0      )

 cart.    s( 6) = ( -0.5000000  0.8660254  0.0000000 )
                  (  0.8660254  0.5000000  0.0000000 )
                  ( -0.0000000 -0.0000000 -1.0000000 )


      isym =  7     inversion                                    

 cryst.   s( 7) = (    -1          0          0      )
                  (     0         -1          0      )
                  (     0          0         -1      )

 cart.    s( 7) = ( -1.0000000 -0.0000000 -0.0000000 )
                  ( -0.0000000 -1.0000000 -0.0000000 )
                  (  0.0000000  0.0000000 -1.0000000 )


      isym =  8     inv. 180 deg rotation - cart. axis [1,0,0]   

 cryst.   s( 8) = (     0          0          1      )
                  (     0          1          0      )
                  (     1          0          0      )

 cart.    s( 8) = ( -1.0000000  0.0000000  0.0000000 )
                  ( -0.0000000  1.0000000  0.0000000 )
                  (  0.0000000 -0.0000000  1.0000000 )


      isym =  9     inv. 120 deg rotation - cryst. axis [0,0,1]  

 cryst.   s( 9) = (     0         -1          0      )
                  (     0          0         -1      )
                  (    -1          0          0      )

 cart.    s( 9) = (  0.5000000  0.8660254  0.0000000 )
                  ( -0.8660254  0.5000000  0.0000000 )
                  ( -0.0000000 -0.0000000 -1.0000000 )


      isym = 10     inv. 120 deg rotation - cryst. axis [0,0,-1] 

 cryst.   s(10) = (     0          0         -1      )
                  (    -1          0          0      )
                  (     0         -1          0      )

 cart.    s(10) = (  0.5000000 -0.8660254 -0.0000000 )
                  (  0.8660254  0.5000000  0.0000000 )
                  ( -0.0000000  0.0000000 -1.0000000 )


      isym = 11     inv. 180 deg rotation - cryst. axis [0,1,0]  

 cryst.   s(11) = (     0          1          0      )
                  (     1          0          0      )
                  (     0          0          1      )

 cart.    s(11) = (  0.5000000  0.8660254  0.0000000 )
                  (  0.8660254 -0.5000000 -0.0000000 )
                  ( -0.0000000 -0.0000000  1.0000000 )


      isym = 12     inv. 180 deg rotation - cryst. axis [1,1,0]  

 cryst.   s(12) = (     1          0          0      )
                  (     0          0          1      )
                  (     0          1          0      )

 cart.    s(12) = (  0.5000000 -0.8660254 -0.0000000 )
                  ( -0.8660254 -0.5000000 -0.0000000 )
                  (  0.0000000  0.0000000  1.0000000 )


     point group D_3d (-3m) 
     there are  6 classes
     the character table:

       E     2C3   3C2'  i     2S6   3s_d 
A_1g   1.00  1.00  1.00  1.00  1.00  1.00
A_2g   1.00  1.00 -1.00  1.00  1.00 -1.00
E_g    2.00 -1.00  0.00  2.00 -1.00  0.00
A_1u   1.00  1.00  1.00 -1.00 -1.00 -1.00
A_2u   1.00  1.00 -1.00 -1.00 -1.00  1.00
E_u    2.00 -1.00  0.00 -2.00  1.00  0.00

     the symmetry operations in each class and the name of the first element:

     E        1
          identity                                               
     2C3      3    4
          120 deg rotation - cryst. axis [0,0,1]                 
     3C2'     2    5    6
          180 deg rotation - cart. axis [1,0,0]                  
     i        7
          inversion                                              
     2S6      9   10
          inv. 120 deg rotation - cryst. axis [0,0,1]            
     3s_d     8   11   12
          inv. 180 deg rotation - cart. axis [1,0,0]             

   Cartesian axes

     site n.     atom                  positions (alat units)
         1        Ni1    tau(   1) = (   0.0000000   0.0000000   0.0000000  )
         2        Ni2    tau(   2) = (   0.1392839   0.0804156   0.4934910  )
         3        I      tau(   3) = (  -0.0000000  -0.0000000   0.3856062  )
         4        I      tau(   4) = (   0.1392839   0.0804156   0.8790972  )
         5        I      tau(   5) = (   0.1392839   0.0804156   0.1078847  )
         6        I      tau(   6) = (   0.1392839  -0.0804156   0.6013757  )

   Crystallographic axes

     site n.     atom                  positions (cryst. coord.)
         1        Ni1    tau(   1) = (  0.0000000  0.0000000  0.0000000  )
         2        Ni2    tau(   2) = (  0.5000000  0.5000000 -0.5000000  )
         3        I      tau(   3) = (  0.1302308  0.1302308  0.1302308  )
         4        I      tau(   4) = (  0.6302308  0.6302308 -0.3697692  )
         5        I      tau(   5) = (  0.3697692  0.3697692 -0.6302308  )
         6        I      tau(   6) = (  0.8697692 -0.1302308 -0.1302308  )

     number of k points=    13  Marzari-Vanderbilt smearing, width (Ry)=  0.0020
                       cart. coord. in units 2pi/alat
        k(    1) = (   0.0000000   0.0000000   0.0000000), wk =   0.0156250
        k(    2) = (  -0.8974477  -0.5181417   0.0844325), wk =   0.0937500
        k(    3) = (   1.7948954   1.0362833  -0.1688650), wk =   0.0468750
        k(    4) = (  -0.8974477   0.5181417   0.1688650), wk =   0.0937500
        k(    5) = (   1.7948954   2.0725667  -0.0844325), wk =   0.1875000
        k(    6) = (   0.8974477   1.5544250   0.0000000), wk =   0.0937500
        k(    7) = (   1.7948954  -1.0362833  -0.3377299), wk =   0.0468750
        k(    8) = (   0.0000000   0.0000000   0.2532974), wk =   0.0312500
        k(    9) = (   2.6923431   1.5544250   0.0000000), wk =   0.0937500
        k(   10) = (   1.7948954   1.0362833   0.0844325), wk =   0.0937500
        k(   11) = (   2.6923431  -1.5544250  -0.2532974), wk =   0.0937500
        k(   12) = (   1.7948954  -2.0725667  -0.1688650), wk =   0.0937500
        k(   13) = (   0.0000000   0.0000000  -0.5065949), wk =   0.0156250

                       cryst. coord.
        k(    1) = (   0.0000000   0.0000000   0.0000000), wk =   0.0156250
        k(    2) = (  -0.0000000  -0.0000000   0.2500000), wk =   0.0937500
        k(    3) = (   0.0000000   0.0000000  -0.5000000), wk =   0.0468750
        k(    4) = (  -0.0000000   0.2500000   0.2500000), wk =   0.0937500
        k(    5) = (  -0.0000000   0.2500000  -0.5000000), wk =   0.1875000
        k(    6) = (  -0.0000000   0.2500000  -0.2500000), wk =   0.0937500
        k(    7) = (   0.0000000  -0.5000000  -0.5000000), wk =   0.0468750
        k(    8) = (   0.2500000   0.2500000   0.2500000), wk =   0.0312500
        k(    9) = (   0.2500000   0.2500000  -0.5000000), wk =   0.0937500
        k(   10) = (   0.2500000   0.2500000  -0.2500000), wk =   0.0937500
        k(   11) = (   0.2500000  -0.5000000  -0.5000000), wk =   0.0937500
        k(   12) = (   0.2500000  -0.5000000  -0.2500000), wk =   0.0937500
        k(   13) = (  -0.5000000  -0.5000000  -0.5000000), wk =   0.0156250

     Dense  grid:    59333 G-vectors     FFT dimensions: ( 120, 120, 120)

     Dynamical RAM for                 wfc:       0.13 MB

     Dynamical RAM for     wfc (w. buffer):       0.67 MB

     Dynamical RAM for             U proj.:       0.04 MB

     Dynamical RAM for  U proj. (w. buff.):       0.18 MB

     Dynamical RAM for           str. fact:       0.08 MB

     Dynamical RAM for           local pot:       0.00 MB

     Dynamical RAM for          nlocal pot:       0.38 MB

     Dynamical RAM for                qrad:       3.37 MB

     Dynamical RAM for          rho,v,vnew:       2.81 MB

     Dynamical RAM for               rhoin:       0.94 MB

     Dynamical RAM for            rho*nmix:       0.91 MB

     Dynamical RAM for           G-vectors:       0.12 MB

     Dynamical RAM for          h,s,v(r/c):       0.26 MB

     Dynamical RAM for          <psi|beta>:       0.06 MB

     Dynamical RAM for                 psi:       0.27 MB

     Dynamical RAM for                hpsi:       0.27 MB

     Dynamical RAM for      wfcinit/wfcrot:       0.30 MB

     Estimated static dynamical RAM per process >      11.30 MB

     Estimated max dynamical RAM per process >      13.07 MB

     Estimated total dynamical RAM >       3.07 GB

     Check: negative core charge=   -0.000024
     Generating pointlists ...
     new r_m :   0.0799 (alat units)  2.1438 (a.u.) for type    1
     new r_m :   0.0799 (alat units)  2.1438 (a.u.) for type    2
     new r_m :   0.0799 (alat units)  2.1438 (a.u.) for type    3

     Initial potential from superposition of free atoms

     starting charge      63.9993, renormalised to      64.0000

     HUBBARD ENERGY =    0.5296  (Ry)

     STARTING HUBBARD OCCUPATIONS:

     =================== HUBBARD OCCUPATIONS ===================
     ------------------------ ATOM    1 ------------------------
     Tr[ns(  1)] (up, down, total) =   5.00000  3.00000  8.00000
     Atomic magnetic moment for atom   1 =   2.00000
     SPIN  1
     eigenvalues:
       1.000  1.000  1.000  1.000  1.000
     eigenvectors (columns):
       1.000  0.000  0.000  0.000  0.000
       0.000  1.000  0.000  0.000  0.000
       0.000  0.000  1.000  0.000  0.000
       0.000  0.000  0.000  1.000  0.000
       0.000  0.000  0.000  0.000  1.000
     occupation matrix ns (before diag.):
       1.000  0.000  0.000  0.000  0.000
       0.000  1.000  0.000  0.000  0.000
       0.000  0.000  1.000  0.000  0.000
       0.000  0.000  0.000  1.000  0.000
       0.000  0.000  0.000  0.000  1.000
     SPIN  2
     eigenvalues:
       0.600  0.600  0.600  0.600  0.600
     eigenvectors (columns):
       1.000  0.000  0.000  0.000  0.000
       0.000  1.000  0.000  0.000  0.000
       0.000  0.000  1.000  0.000  0.000
       0.000  0.000  0.000  1.000  0.000
       0.000  0.000  0.000  0.000  1.000
     occupation matrix ns (before diag.):
       0.600  0.000  0.000  0.000  0.000
       0.000  0.600  0.000  0.000  0.000
       0.000  0.000  0.600  0.000  0.000
       0.000  0.000  0.000  0.600  0.000
       0.000  0.000  0.000  0.000  0.600
     ------------------------ ATOM    2 ------------------------
     Tr[ns(  2)] (up, down, total) =   3.00000  5.00000  8.00000
     Atomic magnetic moment for atom   2 =  -2.00000
     SPIN  1
     eigenvalues:
       0.600  0.600  0.600  0.600  0.600
     eigenvectors (columns):
       1.000  0.000  0.000  0.000  0.000
       0.000  1.000  0.000  0.000  0.000
       0.000  0.000  1.000  0.000  0.000
       0.000  0.000  0.000  1.000  0.000
       0.000  0.000  0.000  0.000  1.000
     occupation matrix ns (before diag.):
       0.600  0.000  0.000  0.000  0.000
       0.000  0.600  0.000  0.000  0.000
       0.000  0.000  0.600  0.000  0.000
       0.000  0.000  0.000  0.600  0.000
       0.000  0.000  0.000  0.000  0.600
     SPIN  2
     eigenvalues:
       1.000  1.000  1.000  1.000  1.000
     eigenvectors (columns):
       1.000  0.000  0.000  0.000  0.000
       0.000  1.000  0.000  0.000  0.000
       0.000  0.000  1.000  0.000  0.000
       0.000  0.000  0.000  1.000  0.000
       0.000  0.000  0.000  0.000  1.000
     occupation matrix ns (before diag.):
       1.000  0.000  0.000  0.000  0.000
       0.000  1.000  0.000  0.000  0.000
       0.000  0.000  1.000  0.000  0.000
       0.000  0.000  0.000  1.000  0.000
       0.000  0.000  0.000  0.000  1.000

     Number of occupied Hubbard levels =   16.0000

     Atomic wfc used for Hubbard projectors are orthogonalized

     Starting wfcs are   36 randomized atomic wfcs +    2 random wfcs

     total cpu time spent up to now is       17.5 secs

     per-process dynamical memory:    70.2 Mb

     Self-consistent Calculation

     iteration #  1     ecut=    49.00 Ry     beta= 0.20
     Davidson diagonalization with overlap

---- Real-time Memory Report at c_bands before calling an iterative solver
            92 MiB given to the printing process from OS
            68 MiB allocation reported by mallinfo(arena+hblkhd)
        239323 MiB available memory on the node where the printing process lives
------------------
     ethr =  1.00E-02,  avg # of iterations =  5.0

     =================== HUBBARD OCCUPATIONS ===================
     ------------------------ ATOM    1 ------------------------
     Tr[ns(  1)] (up, down, total) =   4.98695  2.32098  7.30793
     Atomic magnetic moment for atom   1 =   2.66596
     SPIN  1
     eigenvalues:
       0.997  0.997  0.997  0.998  0.998
     eigenvectors (columns):
       0.000 -0.000 -1.000  0.000  0.000
       0.166 -0.639  0.000  0.561 -0.499
       0.639  0.166  0.000  0.499  0.561
      -0.727 -0.188  0.000  0.439  0.494
      -0.188  0.727  0.000  0.494 -0.439
     occupation matrix ns (before diag.):
       0.997  0.000  0.000  0.000  0.000
       0.000  0.997  0.000 -0.000  0.000
       0.000  0.000  0.997  0.000  0.000
       0.000 -0.000  0.000  0.997 -0.000
       0.000  0.000  0.000 -0.000  0.997
     SPIN  2
     eigenvalues:
       0.169  0.169  0.563  0.710  0.710
     eigenvectors (columns):
      -0.000 -0.000 -1.000  0.000 -0.000
      -0.852  0.113  0.000  0.281  0.427
      -0.113 -0.852  0.000  0.427 -0.281
       0.067  0.507  0.000  0.718 -0.472
       0.507 -0.067  0.000  0.472  0.718
     occupation matrix ns (before diag.):
       0.563  0.000  0.000  0.000  0.000
       0.000  0.310  0.000 -0.000  0.238
       0.000  0.000  0.310  0.238  0.000
       0.000 -0.000  0.238  0.569 -0.000
       0.000  0.238  0.000 -0.000  0.569
     ------------------------ ATOM    2 ------------------------
     Tr[ns(  2)] (up, down, total) =   2.32449  4.98690  7.31139
     Atomic magnetic moment for atom   2 =  -2.66241
     SPIN  1
     eigenvalues:
       0.168  0.168  0.565  0.711  0.711
     eigenvectors (columns):
       0.000  0.000 -1.000  0.000 -0.000
       0.852 -0.113  0.000  0.281  0.427
       0.113  0.852  0.000  0.427 -0.281
      -0.067 -0.507  0.000  0.718 -0.472
      -0.507  0.067  0.000  0.472  0.718
     occupation matrix ns (before diag.):
       0.565  0.000  0.000  0.000  0.000
       0.000  0.310  0.000 -0.000  0.239
       0.000  0.000  0.310  0.239  0.000
       0.000 -0.000  0.239  0.569 -0.000
       0.000  0.239  0.000 -0.000  0.569
     SPIN  2
     eigenvalues:
       0.997  0.997  0.997  0.998  0.998
     eigenvectors (columns):
       0.000 -0.000 -1.000  0.000  0.000
       0.168 -0.621  0.000  0.591 -0.486
       0.621  0.168  0.000  0.486  0.591
      -0.739 -0.200  0.000  0.409  0.497
      -0.200  0.739  0.000  0.497 -0.409
     occupation matrix ns (before diag.):
       0.997  0.000  0.000  0.000  0.000
       0.000  0.997  0.000 -0.000  0.000
       0.000  0.000  0.997  0.000  0.000
       0.000 -0.000  0.000  0.997 -0.000
       0.000  0.000  0.000 -0.000  0.997

     Number of occupied Hubbard levels =   14.6193

     HUBBARD ENERGY =    0.4193  (Ry)

     total cpu time spent up to now is       18.7 secs

     total energy              =    -767.87656260 Ry
     estimated scf accuracy    <       6.84144451 Ry

     total magnetization       =     0.02 Bohr mag/cell
     absolute magnetization    =     6.47 Bohr mag/cell

     iteration #  2     ecut=    49.00 Ry     beta= 0.20
     Davidson diagonalization with overlap

---- Real-time Memory Report at c_bands before calling an iterative solver
           107 MiB given to the printing process from OS
            70 MiB allocation reported by mallinfo(arena+hblkhd)
        238569 MiB available memory on the node where the printing process lives
------------------
     ethr =  1.00E-02,  avg # of iterations =  2.0

     =================== HUBBARD OCCUPATIONS ===================
     ------------------------ ATOM    1 ------------------------
     Tr[ns(  1)] (up, down, total) =   4.99233  3.27357  8.26590
     Atomic magnetic moment for atom   1 =   1.71876
     SPIN  1
     eigenvalues:
       0.998  0.998  0.999  0.999  0.999
     eigenvectors (columns):
       0.000 -0.000 -1.000  0.000  0.000
       0.160 -0.470  0.000  0.837 -0.230
       0.470  0.160  0.000  0.230  0.837
      -0.822 -0.279  0.000  0.132  0.479
      -0.279  0.822  0.000  0.479 -0.132
     occupation matrix ns (before diag.):
       0.999  0.000  0.000  0.000  0.000
       0.000  0.998  0.000 -0.000  0.000
       0.000  0.000  0.998  0.000  0.000
       0.000 -0.000  0.000  0.998 -0.000
       0.000  0.000  0.000 -0.000  0.998
     SPIN  2
     eigenvalues:
       0.185  0.185  0.967  0.969  0.969
     eigenvectors (columns):
      -0.000  0.000 -1.000 -0.000 -0.000
       0.648  0.551  0.000 -0.289  0.439
      -0.551  0.648  0.000 -0.439 -0.289
       0.341 -0.400  0.000 -0.711 -0.467
      -0.400 -0.341  0.000 -0.467  0.711
     occupation matrix ns (before diag.):
       0.967  0.000  0.000  0.000  0.000
       0.000  0.402  0.000 -0.000  0.351
       0.000  0.000  0.402  0.351  0.000
       0.000 -0.000  0.351  0.752 -0.000
       0.000  0.351  0.000 -0.000  0.752
     ------------------------ ATOM    2 ------------------------
     Tr[ns(  2)] (up, down, total) =   3.27586  4.99231  8.26817
     Atomic magnetic moment for atom   2 =  -1.71645
     SPIN  1
     eigenvalues:
       0.186  0.186  0.966  0.969  0.969
     eigenvectors (columns):
      -0.000  0.000 -1.000 -0.000 -0.000
       0.650  0.548  0.000 -0.289  0.439
      -0.548  0.650  0.000 -0.439 -0.289
       0.339 -0.402  0.000 -0.711 -0.468
      -0.402 -0.339  0.000 -0.468  0.711
     occupation matrix ns (before diag.):
       0.966  0.000  0.000  0.000  0.000
       0.000  0.402  0.000 -0.000  0.350
       0.000  0.000  0.402  0.350  0.000
       0.000 -0.000  0.350  0.753 -0.000
       0.000  0.350  0.000 -0.000  0.753
     SPIN  2
     eigenvalues:
       0.998  0.998  0.999  0.999  0.999
     eigenvectors (columns):
       0.000 -0.000 -1.000  0.000  0.000
       0.163 -0.492  0.000  0.808 -0.279
       0.492  0.163  0.000  0.279  0.808
      -0.812 -0.269  0.000  0.169  0.490
      -0.269  0.812  0.000  0.490 -0.169
     occupation matrix ns (before diag.):
       0.999  0.000  0.000  0.000  0.000
       0.000  0.998  0.000 -0.000  0.000
       0.000  0.000  0.998  0.000  0.000
       0.000 -0.000  0.000  0.998 -0.000
       0.000  0.000  0.000 -0.000  0.998

     Number of occupied Hubbard levels =   16.5341

     HUBBARD ENERGY =    0.3908  (Ry)

     total cpu time spent up to now is       19.3 secs

     total energy              =    -769.14410866 Ry
     estimated scf accuracy    <       3.97646731 Ry

     total magnetization       =     0.00 Bohr mag/cell
     absolute magnetization    =     4.30 Bohr mag/cell

     iteration #  3     ecut=    49.00 Ry     beta= 0.20
     Davidson diagonalization with overlap

---- Real-time Memory Report at c_bands before calling an iterative solver
           109 MiB given to the printing process from OS
            81 MiB allocation reported by mallinfo(arena+hblkhd)
        238542 MiB available memory on the node where the printing process lives
------------------
     ethr =  6.21E-03,  avg # of iterations =  1.0

     =================== HUBBARD OCCUPATIONS ===================
     ------------------------ ATOM    1 ------------------------
     Tr[ns(  1)] (up, down, total) =   4.99331  3.33519  8.32850
     Atomic magnetic moment for atom   1 =   1.65812
     SPIN  1
     eigenvalues:
       0.998  0.998  0.999  0.999  0.999
     eigenvectors (columns):
       0.000 -0.000 -0.000  0.000  1.000
       0.168 -0.531  0.748  0.361  0.000
       0.531  0.168  0.361 -0.748  0.000
      -0.792 -0.251  0.242 -0.502  0.000
      -0.251  0.792  0.502  0.242  0.000
     occupation matrix ns (before diag.):
       0.999  0.000  0.000  0.000  0.000
       0.000  0.999  0.000 -0.000  0.000
       0.000  0.000  0.999  0.000  0.000
       0.000 -0.000  0.000  0.999 -0.000
       0.000  0.000  0.000 -0.000  0.999
     SPIN  2
     eigenvalues:
       0.200  0.200  0.978  0.979  0.979
     eigenvectors (columns):
       0.000 -0.000 -1.000 -0.000 -0.000
      -0.598 -0.600  0.000 -0.293  0.443
       0.600 -0.598  0.000 -0.443 -0.293
      -0.376  0.375  0.000 -0.707 -0.467
       0.375  0.376  0.000 -0.467  0.707
     occupation matrix ns (before diag.):
       0.978  0.000  0.000  0.000  0.000
       0.000  0.419  0.000 -0.000  0.350
       0.000  0.000  0.419  0.350  0.000
       0.000 -0.000  0.350  0.759 -0.000
       0.000  0.350  0.000 -0.000  0.759
     ------------------------ ATOM    2 ------------------------
     Tr[ns(  2)] (up, down, total) =   3.33468  4.99331  8.32799
     Atomic magnetic moment for atom   2 =  -1.65863
     SPIN  1
     eigenvalues:
       0.200  0.200  0.978  0.979  0.979
     eigenvectors (columns):
      -0.000  0.000 -1.000 -0.000 -0.000
       0.602  0.597  0.000 -0.293  0.443
      -0.597  0.602  0.000 -0.443 -0.293
       0.374 -0.377  0.000 -0.707 -0.467
      -0.377 -0.374  0.000 -0.467  0.707
     occupation matrix ns (before diag.):
       0.978  0.000  0.000  0.000  0.000
       0.000  0.419  0.000 -0.000  0.350
       0.000  0.000  0.419  0.350  0.000
       0.000 -0.000  0.350  0.759 -0.000
       0.000  0.350  0.000 -0.000  0.759
     SPIN  2
     eigenvalues:
       0.998  0.998  0.999  0.999  0.999
     eigenvectors (columns):
       0.000 -0.000 -0.000  0.000  1.000
       0.168 -0.530  0.750  0.358  0.000
       0.530  0.168  0.358 -0.750  0.000
      -0.792 -0.252  0.239 -0.502  0.000
      -0.252  0.792  0.502  0.239  0.000
     occupation matrix ns (before diag.):
       0.999  0.000  0.000  0.000  0.000
       0.000  0.999  0.000 -0.000  0.000
       0.000  0.000  0.999  0.000  0.000
       0.000 -0.000  0.000  0.999 -0.000
       0.000  0.000  0.000 -0.000  0.999

     Number of occupied Hubbard levels =   16.6565

     HUBBARD ENERGY =    0.1960  (Ry)

     total cpu time spent up to now is       20.0 secs

     total energy              =    -770.31724683 Ry
     estimated scf accuracy    <       2.57589210 Ry

     total magnetization       =    -0.00 Bohr mag/cell
     absolute magnetization    =     4.16 Bohr mag/cell

     iteration #  4     ecut=    49.00 Ry     beta= 0.20
     Davidson diagonalization with overlap

---- Real-time Memory Report at c_bands before calling an iterative solver
           109 MiB given to the printing process from OS
            70 MiB allocation reported by mallinfo(arena+hblkhd)
        238534 MiB available memory on the node where the printing process lives
------------------
     ethr =  4.02E-03,  avg # of iterations =  1.8

     =================== HUBBARD OCCUPATIONS ===================
     ------------------------ ATOM    1 ------------------------
     Tr[ns(  1)] (up, down, total) =   4.98522  3.40537  8.39059
     Atomic magnetic moment for atom   1 =   1.57985
     SPIN  1
     eigenvalues:
       0.997  0.997  0.997  0.997  0.997
     eigenvectors (columns):
      -0.000  0.000 -1.000 -0.000  0.000
       0.110  0.213  0.000 -0.900  0.364
       0.213 -0.110 -0.000  0.364  0.900
       0.862 -0.446 -0.000 -0.090 -0.222
       0.446  0.862 -0.000  0.222 -0.090
     occupation matrix ns (before diag.):
       0.997  0.000  0.000  0.000  0.000
       0.000  0.997  0.000 -0.000 -0.000
       0.000  0.000  0.997 -0.000  0.000
       0.000 -0.000 -0.000  0.997 -0.000
       0.000 -0.000  0.000 -0.000  0.997
     SPIN  2
     eigenvalues:
       0.218  0.218  0.990  0.990  0.991
     eigenvectors (columns):
       0.000 -0.000 -0.000  0.000  1.000
      -0.455 -0.705  0.303  0.452  0.000
       0.705 -0.455  0.452 -0.303  0.000
      -0.457  0.295  0.696 -0.468  0.000
       0.295  0.457  0.468  0.696  0.000
     occupation matrix ns (before diag.):
       0.991  0.000  0.000  0.000  0.000
       0.000  0.446  0.000 -0.000  0.352
       0.000  0.000  0.446  0.352  0.000
       0.000 -0.000  0.352  0.761 -0.000
       0.000  0.352  0.000 -0.000  0.761
     ------------------------ ATOM    2 ------------------------
     Tr[ns(  2)] (up, down, total) =   3.40510  4.98530  8.39040
     Atomic magnetic moment for atom   2 =  -1.58020
     SPIN  1
     eigenvalues:
       0.218  0.218  0.990  0.990  0.990
     eigenvectors (columns):
       0.000 -0.000 -0.000  0.000  1.000
      -0.455 -0.705  0.303  0.452  0.000
       0.705 -0.455  0.452 -0.303  0.000
      -0.457  0.295  0.697 -0.467  0.000
       0.295  0.457  0.467  0.697  0.000
     occupation matrix ns (before diag.):
       0.990  0.000  0.000  0.000  0.000
       0.000  0.446  0.000 -0.000  0.352
       0.000  0.000  0.446  0.352  0.000
       0.000 -0.000  0.352  0.761 -0.000
       0.000  0.352  0.000 -0.000  0.761
     SPIN  2
     eigenvalues:
       0.997  0.997  0.997  0.998  0.998
     eigenvectors (columns):
      -0.000  0.000 -1.000 -0.000  0.000
       0.105  0.204  0.000 -0.904  0.360
       0.204 -0.105 -0.000  0.360  0.904
       0.866 -0.445 -0.000 -0.085 -0.213
       0.445  0.866 -0.000  0.213 -0.085
     occupation matrix ns (before diag.):
       0.997  0.000  0.000  0.000  0.000
       0.000  0.997  0.000 -0.000 -0.000
       0.000  0.000  0.997 -0.000  0.000
       0.000 -0.000 -0.000  0.997 -0.000
       0.000 -0.000  0.000 -0.000  0.997

     Number of occupied Hubbard levels =   16.7810

     HUBBARD ENERGY =    0.1539  (Ry)

     total cpu time spent up to now is       20.6 secs

     total energy              =    -770.40605196 Ry
     estimated scf accuracy    <       0.14553864 Ry

     total magnetization       =     0.00 Bohr mag/cell
     absolute magnetization    =     4.07 Bohr mag/cell

     iteration #  5     ecut=    49.00 Ry     beta= 0.20
     Davidson diagonalization with overlap

---- Real-time Memory Report at c_bands before calling an iterative solver
           110 MiB given to the printing process from OS
            70 MiB allocation reported by mallinfo(arena+hblkhd)
        238533 MiB available memory on the node where the printing process lives
------------------
     ethr =  2.27E-04,  avg # of iterations =  4.6

     =================== HUBBARD OCCUPATIONS ===================
     ------------------------ ATOM    1 ------------------------
     Tr[ns(  1)] (up, down, total) =   4.98240  3.68505  8.66744
     Atomic magnetic moment for atom   1 =   1.29735
     SPIN  1
     eigenvalues:
       0.996  0.996  0.996  0.997  0.997
     eigenvectors (columns):
      -0.000  0.000 -1.000 -0.000  0.000
       0.162  0.295 -0.000 -0.852  0.401
       0.295 -0.162 -0.000  0.401  0.852
       0.825 -0.454 -0.000 -0.144 -0.305
       0.454  0.825 -0.000  0.305 -0.144
     occupation matrix ns (before diag.):
       0.996  0.000  0.000  0.000  0.000
       0.000  0.997  0.000 -0.000 -0.000
       0.000  0.000  0.997 -0.000  0.000
       0.000 -0.000 -0.000  0.996 -0.000
       0.000 -0.000  0.000 -0.000  0.996
     SPIN  2
     eigenvalues:
       0.354  0.354  0.992  0.992  0.993
     eigenvectors (columns):
      -0.000  0.000 -0.000  0.000  1.000
       0.400  0.734  0.307  0.455  0.000
      -0.734  0.400  0.455 -0.307  0.000
       0.482 -0.263  0.693 -0.468  0.000
      -0.263 -0.482  0.468  0.693  0.000
     occupation matrix ns (before diag.):
       0.993  0.000  0.000  0.000  0.000
       0.000  0.546  0.000 -0.000  0.292
       0.000  0.000  0.546  0.292  0.000
       0.000 -0.000  0.292  0.800 -0.000
       0.000  0.292  0.000 -0.000  0.800
     ------------------------ ATOM    2 ------------------------
     Tr[ns(  2)] (up, down, total) =   3.68737  4.98244  8.66981
     Atomic magnetic moment for atom   2 =  -1.29507
     SPIN  1
     eigenvalues:
       0.355  0.355  0.992  0.992  0.993
     eigenvectors (columns):
      -0.000  0.000 -0.000  0.000  1.000
       0.404  0.732  0.307  0.455  0.000
      -0.732  0.404  0.455 -0.307  0.000
       0.480 -0.266  0.693 -0.468  0.000
      -0.266 -0.480  0.468  0.693  0.000
     occupation matrix ns (before diag.):
       0.993  0.000  0.000  0.000  0.000
       0.000  0.547  0.000 -0.000  0.292
       0.000  0.000  0.547  0.292  0.000
       0.000 -0.000  0.292  0.800 -0.000
       0.000  0.292  0.000 -0.000  0.800
     SPIN  2
     eigenvalues:
       0.996  0.996  0.996  0.997  0.997
     eigenvectors (columns):
      -0.000  0.000 -1.000 -0.000  0.000
       0.162  0.295 -0.000 -0.852  0.400
       0.295 -0.162 -0.000  0.400  0.852
       0.825 -0.454 -0.000 -0.143 -0.304
       0.454  0.825 -0.000  0.304 -0.143
     occupation matrix ns (before diag.):
       0.996  0.000  0.000  0.000  0.000
       0.000  0.997  0.000 -0.000 -0.000
       0.000  0.000  0.997 -0.000  0.000
       0.000 -0.000 -0.000  0.996 -0.000
       0.000 -0.000  0.000 -0.000  0.996

     Number of occupied Hubbard levels =   17.3373

     HUBBARD ENERGY =    0.1620  (Ry)

     total cpu time spent up to now is       21.5 secs

     total energy              =    -770.44989291 Ry
     estimated scf accuracy    <       0.14065522 Ry

     total magnetization       =    -0.00 Bohr mag/cell
     absolute magnetization    =     4.04 Bohr mag/cell

     iteration #  6     ecut=    49.00 Ry     beta= 0.20
     Davidson diagonalization with overlap

---- Real-time Memory Report at c_bands before calling an iterative solver
           111 MiB given to the printing process from OS
            70 MiB allocation reported by mallinfo(arena+hblkhd)
        238538 MiB available memory on the node where the printing process lives
------------------
     ethr =  2.20E-04,  avg # of iterations =  1.0

     =================== HUBBARD OCCUPATIONS ===================
     ------------------------ ATOM    1 ------------------------
     Tr[ns(  1)] (up, down, total) =   4.98005  3.60712  8.58717
     Atomic magnetic moment for atom   1 =   1.37293
     SPIN  1
     eigenvalues:
       0.995  0.995  0.996  0.997  0.997
     eigenvectors (columns):
      -0.000  0.000 -1.000 -0.000  0.000
       0.180  0.320 -0.000 -0.832  0.416
       0.320 -0.180 -0.000  0.416  0.832
       0.811 -0.456 -0.000 -0.164 -0.328
       0.456  0.811 -0.000  0.328 -0.164
     occupation matrix ns (before diag.):
       0.996  0.000  0.000  0.000  0.000
       0.000  0.997  0.000 -0.000 -0.001
       0.000  0.000  0.997 -0.001  0.000
       0.000 -0.000 -0.001  0.995 -0.000
       0.000 -0.001  0.000 -0.000  0.995
     SPIN  2
     eigenvalues:
       0.316  0.316  0.991  0.991  0.992
     eigenvectors (columns):
      -0.000  0.000 -0.000  0.000  1.000
       0.403  0.732  0.307  0.455  0.000
      -0.732  0.403  0.455 -0.307  0.000
       0.481 -0.265  0.693 -0.468  0.000
      -0.265 -0.481  0.468  0.693  0.000
     occupation matrix ns (before diag.):
       0.992  0.000  0.000  0.000  0.000
       0.000  0.520  0.000 -0.000  0.310
       0.000  0.000  0.520  0.310  0.000
       0.000 -0.000  0.310  0.788 -0.000
       0.000  0.310  0.000 -0.000  0.788
     ------------------------ ATOM    2 ------------------------
     Tr[ns(  2)] (up, down, total) =   3.60841  4.98008  8.58849
     Atomic magnetic moment for atom   2 =  -1.37167
     SPIN  1
     eigenvalues:
       0.317  0.317  0.991  0.991  0.992
     eigenvectors (columns):
      -0.000  0.000 -0.000  0.000  1.000
       0.400  0.734  0.307  0.455  0.000
      -0.734  0.400  0.455 -0.307  0.000
       0.482 -0.263  0.693 -0.468  0.000
      -0.263 -0.482  0.468  0.693  0.000
     occupation matrix ns (before diag.):
       0.992  0.000  0.000  0.000  0.000
       0.000  0.520  0.000 -0.000  0.310
       0.000  0.000  0.520  0.310  0.000
       0.000 -0.000  0.310  0.788 -0.000
       0.000  0.310  0.000 -0.000  0.788
     SPIN  2
     eigenvalues:
       0.995  0.995  0.996  0.997  0.997
     eigenvectors (columns):
      -0.000  0.000 -1.000 -0.000  0.000
       0.179  0.319 -0.000 -0.832  0.416
       0.319 -0.179 -0.000  0.416  0.832
       0.811 -0.456 -0.000 -0.164 -0.327
       0.456  0.811 -0.000  0.327 -0.164
     occupation matrix ns (before diag.):
       0.996  0.000  0.000  0.000  0.000
       0.000  0.997  0.000 -0.000 -0.001
       0.000  0.000  0.997 -0.001  0.000
       0.000 -0.000 -0.001  0.995 -0.000
       0.000 -0.001  0.000 -0.000  0.995

     Number of occupied Hubbard levels =   17.1757

     HUBBARD ENERGY =    0.1718  (Ry)

     total cpu time spent up to now is       22.2 secs

     total energy              =    -770.44657638 Ry
     estimated scf accuracy    <       0.04918023 Ry

     total magnetization       =    -0.00 Bohr mag/cell
     absolute magnetization    =     4.04 Bohr mag/cell

     iteration #  7     ecut=    49.00 Ry     beta= 0.20
     Davidson diagonalization with overlap

---- Real-time Memory Report at c_bands before calling an iterative solver
           111 MiB given to the printing process from OS
            70 MiB allocation reported by mallinfo(arena+hblkhd)
        238525 MiB available memory on the node where the printing process lives
------------------
     ethr =  7.68E-05,  avg # of iterations =  2.0

     =================== HUBBARD OCCUPATIONS ===================
     ------------------------ ATOM    1 ------------------------
     Tr[ns(  1)] (up, down, total) =   4.97713  3.54938  8.52650
     Atomic magnetic moment for atom   1 =   1.42775
     SPIN  1
     eigenvalues:
       0.995  0.995  0.995  0.996  0.996
     eigenvectors (columns):
      -0.000  0.000 -1.000 -0.000  0.000
       0.192  0.336 -0.000 -0.816  0.428
       0.336 -0.192 -0.000  0.428  0.816
       0.800 -0.458 -0.000 -0.180 -0.343
       0.458  0.800 -0.000  0.343 -0.180
     occupation matrix ns (before diag.):
       0.995  0.000  0.000  0.000  0.000
       0.000  0.996  0.000 -0.000 -0.001
       0.000  0.000  0.996 -0.001  0.000
       0.000 -0.000 -0.001  0.995 -0.000
       0.000 -0.001  0.000 -0.000  0.995
     SPIN  2
     eigenvalues:
       0.288  0.288  0.991  0.991  0.992
     eigenvectors (columns):
      -0.000  0.000 -0.000  0.000  1.000
       0.379  0.743  0.309  0.456  0.000
      -0.743  0.379  0.456 -0.309  0.000
       0.491 -0.250  0.691 -0.468  0.000
      -0.250 -0.491  0.468  0.691  0.000
     occupation matrix ns (before diag.):
       0.992  0.000  0.000  0.000  0.000
       0.000  0.501  0.000 -0.000  0.323
       0.000  0.000  0.501  0.323  0.000
       0.000 -0.000  0.323  0.777 -0.000
       0.000  0.323  0.000 -0.000  0.777
     ------------------------ ATOM    2 ------------------------
     Tr[ns(  2)] (up, down, total) =   3.54929  4.97714  8.52643
     Atomic magnetic moment for atom   2 =  -1.42785
     SPIN  1
     eigenvalues:
       0.288  0.288  0.991  0.991  0.992
     eigenvectors (columns):
      -0.000  0.000 -0.000  0.000  1.000
       0.380  0.743  0.309  0.456  0.000
      -0.743  0.380  0.456 -0.309  0.000
       0.490 -0.251  0.691 -0.468  0.000
      -0.251 -0.490  0.468  0.691  0.000
     occupation matrix ns (before diag.):
       0.992  0.000  0.000  0.000  0.000
       0.000  0.501  0.000 -0.000  0.323
       0.000  0.000  0.501  0.323  0.000
       0.000 -0.000  0.323  0.777 -0.000
       0.000  0.323  0.000 -0.000  0.777
     SPIN  2
     eigenvalues:
       0.995  0.995  0.995  0.996  0.996
     eigenvectors (columns):
      -0.000  0.000 -1.000 -0.000  0.000
       0.191  0.335 -0.000 -0.817  0.428
       0.335 -0.191 -0.000  0.428  0.817
       0.801 -0.457 -0.000 -0.179 -0.342
       0.457  0.801 -0.000  0.342 -0.179
     occupation matrix ns (before diag.):
       0.995  0.000  0.000  0.000  0.000
       0.000  0.996  0.000 -0.000 -0.001
       0.000  0.000  0.996 -0.001  0.000
       0.000 -0.000 -0.001  0.995 -0.000
       0.000 -0.001  0.000 -0.000  0.995

     Number of occupied Hubbard levels =   17.0529

     HUBBARD ENERGY =    0.1932  (Ry)

     total cpu time spent up to now is       22.8 secs

     total energy              =    -770.45225648 Ry
     estimated scf accuracy    <       0.00522829 Ry

     total magnetization       =     0.00 Bohr mag/cell
     absolute magnetization    =     4.05 Bohr mag/cell

     iteration #  8     ecut=    49.00 Ry     beta= 0.20
     Davidson diagonalization with overlap

---- Real-time Memory Report at c_bands before calling an iterative solver
           111 MiB given to the printing process from OS
            70 MiB allocation reported by mallinfo(arena+hblkhd)
        238522 MiB available memory on the node where the printing process lives
------------------
     ethr =  8.17E-06,  avg # of iterations =  6.0

     =================== HUBBARD OCCUPATIONS ===================
     ------------------------ ATOM    1 ------------------------
     Tr[ns(  1)] (up, down, total) =   4.97375  3.55719  8.53093
     Atomic magnetic moment for atom   1 =   1.41656
     SPIN  1
     eigenvalues:
       0.994  0.994  0.994  0.996  0.996
     eigenvectors (columns):
      -0.000  0.000 -1.000 -0.000  0.000
       0.206  0.354 -0.000 -0.796  0.446
       0.354 -0.206 -0.000  0.446  0.796
       0.789 -0.459 -0.000 -0.200 -0.357
       0.459  0.789 -0.000  0.357 -0.200
     occupation matrix ns (before diag.):
       0.994  0.000  0.000  0.000  0.000
       0.000  0.996  0.000 -0.000 -0.001
       0.000  0.000  0.996 -0.001  0.000
       0.000 -0.000 -0.001  0.994 -0.000
       0.000 -0.001  0.000 -0.000  0.994
     SPIN  2
     eigenvalues:
       0.293  0.293  0.990  0.990  0.991
     eigenvectors (columns):
       0.000  0.000 -0.000  0.000  1.000
      -0.328  0.763  0.314  0.460  0.000
       0.763  0.328  0.460 -0.314  0.000
      -0.511 -0.219  0.686 -0.469  0.000
       0.219 -0.511  0.469  0.686  0.000
     occupation matrix ns (before diag.):
       0.991  0.000  0.000  0.000  0.000
       0.000  0.509  0.000 -0.000  0.322
       0.000  0.000  0.509  0.322  0.000
       0.000 -0.000  0.322  0.774 -0.000
       0.000  0.322  0.000 -0.000  0.774
     ------------------------ ATOM    2 ------------------------
     Tr[ns(  2)] (up, down, total) =   3.55692  4.97375  8.53066
     Atomic magnetic moment for atom   2 =  -1.41683
     SPIN  1
     eigenvalues:
       0.293  0.293  0.990  0.990  0.991
     eigenvectors (columns):
       0.000  0.000 -0.000  0.000  1.000
      -0.319  0.767  0.314  0.460  0.000
       0.767  0.319  0.460 -0.314  0.000
      -0.514 -0.214  0.686 -0.468  0.000
       0.214 -0.514  0.468  0.686  0.000
     occupation matrix ns (before diag.):
       0.991  0.000  0.000  0.000  0.000
       0.000  0.509  0.000 -0.000  0.322
       0.000  0.000  0.509  0.322  0.000
       0.000 -0.000  0.322  0.774 -0.000
       0.000  0.322  0.000 -0.000  0.774
     SPIN  2
     eigenvalues:
       0.994  0.994  0.994  0.996  0.996
     eigenvectors (columns):
      -0.000  0.000 -1.000 -0.000  0.000
       0.206  0.354 -0.000 -0.796  0.446
       0.354 -0.206 -0.000  0.446  0.796
       0.788 -0.459 -0.000 -0.200 -0.357
       0.459  0.788 -0.000  0.357 -0.200
     occupation matrix ns (before diag.):
       0.994  0.000  0.000  0.000  0.000
       0.000  0.996  0.000 -0.000 -0.001
       0.000  0.000  0.996 -0.001  0.000
       0.000 -0.000 -0.001  0.994 -0.000
       0.000 -0.001  0.000 -0.000  0.994

     Number of occupied Hubbard levels =   17.0616

     HUBBARD ENERGY =    0.2034  (Ry)

     total cpu time spent up to now is       23.8 secs

     total energy              =    -770.45449432 Ry
     estimated scf accuracy    <       0.00192702 Ry

     total magnetization       =    -0.00 Bohr mag/cell
     absolute magnetization    =     4.06 Bohr mag/cell

     iteration #  9     ecut=    49.00 Ry     beta= 0.20
     Davidson diagonalization with overlap

---- Real-time Memory Report at c_bands before calling an iterative solver
           112 MiB given to the printing process from OS
            70 MiB allocation reported by mallinfo(arena+hblkhd)
        238508 MiB available memory on the node where the printing process lives
------------------
     ethr =  3.01E-06,  avg # of iterations =  2.6

     =================== HUBBARD OCCUPATIONS ===================
     ------------------------ ATOM    1 ------------------------
     Tr[ns(  1)] (up, down, total) =   4.97308  3.56342  8.53649
     Atomic magnetic moment for atom   1 =   1.40966
     SPIN  1
     eigenvalues:
       0.994  0.994  0.994  0.996  0.996
     eigenvectors (columns):
      -0.000  0.000 -1.000 -0.000  0.000
       0.210  0.359 -0.000 -0.789  0.451
       0.359 -0.210 -0.000  0.451  0.789
       0.785 -0.459 -0.000 -0.206 -0.361
       0.459  0.785 -0.000  0.361 -0.206
     occupation matrix ns (before diag.):
       0.994  0.000  0.000  0.000  0.000
       0.000  0.995  0.000 -0.000 -0.001
       0.000  0.000  0.995 -0.001  0.000
       0.000 -0.000 -0.001  0.994 -0.000
       0.000 -0.001  0.000 -0.000  0.994
     SPIN  2
     eigenvalues:
       0.297  0.297  0.990  0.990  0.990
     eigenvectors (columns):
       0.000  0.000 -0.000  0.000  1.000
      -0.292  0.776  0.316  0.461  0.000
       0.776  0.292  0.461 -0.316  0.000
      -0.524 -0.197  0.684 -0.469  0.000
       0.197 -0.524  0.469  0.684  0.000
     occupation matrix ns (before diag.):
       0.990  0.000  0.000  0.000  0.000
       0.000  0.514  0.000 -0.000  0.321
       0.000  0.000  0.514  0.321  0.000
       0.000 -0.000  0.321  0.773 -0.000
       0.000  0.321  0.000 -0.000  0.773
     ------------------------ ATOM    2 ------------------------
     Tr[ns(  2)] (up, down, total) =   3.56255  4.97306  8.53561
     Atomic magnetic moment for atom   2 =  -1.41051
     SPIN  1
     eigenvalues:
       0.296  0.296  0.990  0.990  0.990
     eigenvectors (columns):
       0.000  0.000 -0.000  0.000  1.000
      -0.297  0.774  0.316  0.462  0.000
       0.774  0.297  0.462 -0.316  0.000
      -0.522 -0.201  0.684 -0.468  0.000
       0.201 -0.522  0.468  0.684  0.000
     occupation matrix ns (before diag.):
       0.990  0.000  0.000  0.000  0.000
       0.000  0.513  0.000 -0.000  0.321
       0.000  0.000  0.513  0.321  0.000
       0.000 -0.000  0.321  0.773 -0.000
       0.000  0.321  0.000 -0.000  0.773
     SPIN  2
     eigenvalues:
       0.994  0.994  0.994  0.996  0.996
     eigenvectors (columns):
      -0.000  0.000 -1.000 -0.000  0.000
       0.210  0.359 -0.000 -0.790  0.451
       0.359 -0.210 -0.000  0.451  0.790
       0.785 -0.459 -0.000 -0.206 -0.361
       0.459  0.785 -0.000  0.361 -0.206
     occupation matrix ns (before diag.):
       0.994  0.000  0.000  0.000  0.000
       0.000  0.995  0.000 -0.000 -0.001
       0.000  0.000  0.995 -0.001  0.000
       0.000 -0.000 -0.001  0.994 -0.000
       0.000 -0.001  0.000 -0.000  0.994

     Number of occupied Hubbard levels =   17.0721

     HUBBARD ENERGY =    0.2124  (Ry)

     total cpu time spent up to now is       24.5 secs

     total energy              =    -770.45436522 Ry
     estimated scf accuracy    <       0.00209441 Ry

     total magnetization       =     0.00 Bohr mag/cell
     absolute magnetization    =     4.06 Bohr mag/cell

     iteration # 10     ecut=    49.00 Ry     beta= 0.20
     Davidson diagonalization with overlap

---- Real-time Memory Report at c_bands before calling an iterative solver
           112 MiB given to the printing process from OS
            71 MiB allocation reported by mallinfo(arena+hblkhd)
        238504 MiB available memory on the node where the printing process lives
------------------
     ethr =  3.01E-06,  avg # of iterations =  1.7

     =================== HUBBARD OCCUPATIONS ===================
     ------------------------ ATOM    1 ------------------------
     Tr[ns(  1)] (up, down, total) =   4.97261  3.58855  8.56116
     Atomic magnetic moment for atom   1 =   1.38406
     SPIN  1
     eigenvalues:
       0.994  0.994  0.994  0.996  0.996
     eigenvectors (columns):
      -0.000  0.000 -1.000 -0.000  0.000
       0.215  0.365 -0.000 -0.781  0.458
       0.365 -0.215 -0.000  0.458  0.781
       0.781 -0.459 -0.000 -0.214 -0.365
       0.459  0.781 -0.000  0.365 -0.214
     occupation matrix ns (before diag.):
       0.994  0.000  0.000  0.000  0.000
       0.000  0.995  0.000 -0.000 -0.001
       0.000  0.000  0.995 -0.001  0.000
       0.000 -0.000 -0.001  0.994 -0.000
       0.000 -0.001  0.000 -0.000  0.994
     SPIN  2
     eigenvalues:
       0.310  0.310  0.989  0.989  0.990
     eigenvectors (columns):
       0.000  0.000 -0.000  0.000  1.000
      -0.256  0.786  0.320  0.464  0.000
       0.786  0.256  0.464 -0.320  0.000
      -0.536 -0.174  0.680 -0.469  0.000
       0.174 -0.536  0.469  0.680  0.000
     occupation matrix ns (before diag.):
       0.990  0.000  0.000  0.000  0.000
       0.000  0.525  0.000 -0.000  0.316
       0.000  0.000  0.525  0.316  0.000
       0.000 -0.000  0.316  0.774 -0.000
       0.000  0.316  0.000 -0.000  0.774
     ------------------------ ATOM    2 ------------------------
     Tr[ns(  2)] (up, down, total) =   3.58860  4.97262  8.56122
     Atomic magnetic moment for atom   2 =  -1.38401
     SPIN  1
     eigenvalues:
       0.310  0.310  0.989  0.989  0.990
     eigenvectors (columns):
       0.000  0.000 -0.000  0.000  1.000
      -0.256  0.786  0.320  0.464  0.000
       0.786  0.256  0.464 -0.320  0.000
      -0.536 -0.174  0.680 -0.469  0.000
       0.174 -0.536  0.469  0.680  0.000
     occupation matrix ns (before diag.):
       0.990  0.000  0.000  0.000  0.000
       0.000  0.525  0.000 -0.000  0.316
       0.000  0.000  0.525  0.316  0.000
       0.000 -0.000  0.316  0.774 -0.000
       0.000  0.316  0.000 -0.000  0.774
     SPIN  2
     eigenvalues:
       0.994  0.994  0.994  0.996  0.996
     eigenvectors (columns):
      -0.000  0.000 -1.000 -0.000  0.000
       0.215  0.365 -0.000 -0.781  0.458
       0.365 -0.215 -0.000  0.458  0.781
       0.781 -0.460 -0.000 -0.214 -0.365
       0.460  0.781 -0.000  0.365 -0.214
     occupation matrix ns (before diag.):
       0.994  0.000  0.000  0.000  0.000
       0.000  0.995  0.000 -0.000 -0.001
       0.000  0.000  0.995 -0.001  0.000
       0.000 -0.000 -0.001  0.994 -0.000
       0.000 -0.001  0.000 -0.000  0.994

     Number of occupied Hubbard levels =   17.1224

     HUBBARD ENERGY =    0.2145  (Ry)

     total cpu time spent up to now is       25.2 secs

     total energy              =    -770.45470561 Ry
     estimated scf accuracy    <       0.00021893 Ry

     total magnetization       =     0.00 Bohr mag/cell
     absolute magnetization    =     4.06 Bohr mag/cell

     iteration # 11     ecut=    49.00 Ry     beta= 0.20
     Davidson diagonalization with overlap

---- Real-time Memory Report at c_bands before calling an iterative solver
           112 MiB given to the printing process from OS
            71 MiB allocation reported by mallinfo(arena+hblkhd)
        238499 MiB available memory on the node where the printing process lives
------------------
     ethr =  3.42E-07,  avg # of iterations =  1.7

     =================== HUBBARD OCCUPATIONS ===================
     ------------------------ ATOM    1 ------------------------
     Tr[ns(  1)] (up, down, total) =   4.97243  3.59409  8.56652
     Atomic magnetic moment for atom   1 =   1.37835
     SPIN  1
     eigenvalues:
       0.993  0.993  0.994  0.996  0.996
     eigenvectors (columns):
      -0.000  0.000 -1.000 -0.000  0.000
       0.217  0.367 -0.000 -0.778  0.461
       0.367 -0.217 -0.000  0.461  0.778
       0.779 -0.460 -0.000 -0.218 -0.367
       0.460  0.779 -0.000  0.367 -0.218
     occupation matrix ns (before diag.):
       0.994  0.000  0.000  0.000  0.000
       0.000  0.995  0.000 -0.000 -0.001
       0.000  0.000  0.995 -0.001  0.000
       0.000 -0.000 -0.001  0.994 -0.000
       0.000 -0.001  0.000 -0.000  0.994
     SPIN  2
     eigenvalues:
       0.313  0.313  0.989  0.989  0.990
     eigenvectors (columns):
       0.000  0.000 -0.000  0.000  1.000
      -0.236  0.790  0.322  0.465  0.000
       0.790  0.236  0.465 -0.322  0.000
      -0.542 -0.162  0.678 -0.469  0.000
       0.162 -0.542  0.469  0.678  0.000
     occupation matrix ns (before diag.):
       0.990  0.000  0.000  0.000  0.000
       0.000  0.529  0.000 -0.000  0.316
       0.000  0.000  0.529  0.316  0.000
       0.000 -0.000  0.316  0.773 -0.000
       0.000  0.316  0.000 -0.000  0.773
     ------------------------ ATOM    2 ------------------------
     Tr[ns(  2)] (up, down, total) =   3.59342  4.97241  8.56583
     Atomic magnetic moment for atom   2 =  -1.37898
     SPIN  1
     eigenvalues:
       0.312  0.312  0.989  0.989  0.990
     eigenvectors (columns):
       0.000  0.000 -0.000  0.000  1.000
      -0.232  0.791  0.321  0.465  0.000
       0.791  0.232  0.465 -0.321  0.000
      -0.543 -0.159  0.679 -0.469  0.000
       0.159 -0.543  0.469  0.679  0.000
     occupation matrix ns (before diag.):
       0.990  0.000  0.000  0.000  0.000
       0.000  0.529  0.000 -0.000  0.316
       0.000  0.000  0.529  0.316  0.000
       0.000 -0.000  0.316  0.773 -0.000
       0.000  0.316  0.000 -0.000  0.773
     SPIN  2
     eigenvalues:
       0.993  0.993  0.994  0.996  0.996
     eigenvectors (columns):
      -0.000  0.000 -1.000 -0.000  0.000
       0.217  0.367 -0.000 -0.778  0.462
       0.367 -0.217 -0.000  0.462  0.778
       0.779 -0.460 -0.000 -0.218 -0.367
       0.460  0.779 -0.000  0.367 -0.218
     occupation matrix ns (before diag.):
       0.994  0.000  0.000  0.000  0.000
       0.000  0.995  0.000 -0.000 -0.001
       0.000  0.000  0.995 -0.001  0.000
       0.000 -0.000 -0.001  0.994 -0.000
       0.000 -0.001  0.000 -0.000  0.994

     Number of occupied Hubbard levels =   17.1323

     HUBBARD ENERGY =    0.2184  (Ry)

     total cpu time spent up to now is       25.9 secs

     total energy              =    -770.45468818 Ry
     estimated scf accuracy    <       0.00009021 Ry

     total magnetization       =    -0.00 Bohr mag/cell
     absolute magnetization    =     4.06 Bohr mag/cell

     iteration # 12     ecut=    49.00 Ry     beta= 0.20
     Davidson diagonalization with overlap

---- Real-time Memory Report at c_bands before calling an iterative solver
           112 MiB given to the printing process from OS
            71 MiB allocation reported by mallinfo(arena+hblkhd)
        238498 MiB available memory on the node where the printing process lives
------------------
     ethr =  1.41E-07,  avg # of iterations =  2.0

     =================== HUBBARD OCCUPATIONS ===================
     ------------------------ ATOM    1 ------------------------
     Tr[ns(  1)] (up, down, total) =   4.97221  3.60488  8.57709
     Atomic magnetic moment for atom   1 =   1.36734
     SPIN  1
     eigenvalues:
       0.993  0.993  0.994  0.996  0.996
     eigenvectors (columns):
      -0.000  0.000 -1.000 -0.000  0.000
       0.221  0.372 -0.000 -0.771  0.467
       0.372 -0.221 -0.000  0.467  0.771
       0.775 -0.460 -0.000 -0.224 -0.370
       0.460  0.775 -0.000  0.370 -0.224
     occupation matrix ns (before diag.):
       0.994  0.000  0.000  0.000  0.000
       0.000  0.995  0.000 -0.000 -0.001
       0.000  0.000  0.995 -0.001  0.000
       0.000 -0.000 -0.001  0.994 -0.000
       0.000 -0.001  0.000 -0.000  0.994
     SPIN  2
     eigenvalues:
       0.318  0.318  0.989  0.989  0.990
     eigenvectors (columns):
       0.000  0.000 -0.000  0.000  1.000
      -0.197  0.798  0.325  0.467  0.000
       0.798  0.197  0.467 -0.325  0.000
      -0.553 -0.136  0.675 -0.469  0.000
       0.136 -0.553  0.469  0.675  0.000
     occupation matrix ns (before diag.):
       0.990  0.000  0.000  0.000  0.000
       0.000  0.536  0.000 -0.000  0.314
       0.000  0.000  0.536  0.314  0.000
       0.000 -0.000  0.314  0.772 -0.000
       0.000  0.314  0.000 -0.000  0.772
     ------------------------ ATOM    2 ------------------------
     Tr[ns(  2)] (up, down, total) =   3.60487  4.97221  8.57708
     Atomic magnetic moment for atom   2 =  -1.36734
     SPIN  1
     eigenvalues:
       0.318  0.318  0.989  0.989  0.990
     eigenvectors (columns):
       0.000  0.000 -0.000  0.000  1.000
      -0.196  0.798  0.325  0.467  0.000
       0.798  0.196  0.467 -0.325  0.000
      -0.553 -0.136  0.675 -0.469  0.000
       0.136 -0.553  0.469  0.675  0.000
     occupation matrix ns (before diag.):
       0.990  0.000  0.000  0.000  0.000
       0.000  0.536  0.000 -0.000  0.314
       0.000  0.000  0.536  0.314  0.000
       0.000 -0.000  0.314  0.772 -0.000
       0.000  0.314  0.000 -0.000  0.772
     SPIN  2
     eigenvalues:
       0.993  0.993  0.994  0.996  0.996
     eigenvectors (columns):
      -0.000  0.000 -1.000 -0.000  0.000
       0.221  0.372 -0.000 -0.771  0.468
       0.372 -0.221 -0.000  0.468  0.771
       0.775 -0.460 -0.000 -0.224 -0.370
       0.460  0.775 -0.000  0.370 -0.224
     occupation matrix ns (before diag.):
       0.994  0.000  0.000  0.000  0.000
       0.000  0.995  0.000 -0.000 -0.001
       0.000  0.000  0.995 -0.001  0.000
       0.000 -0.000 -0.001  0.994 -0.000
       0.000 -0.001  0.000 -0.000  0.994

     Number of occupied Hubbard levels =   17.1542

     HUBBARD ENERGY =    0.2171  (Ry)

     total cpu time spent up to now is       26.6 secs

     total energy              =    -770.45476715 Ry
     estimated scf accuracy    <       0.00003546 Ry

     total magnetization       =    -0.00 Bohr mag/cell
     absolute magnetization    =     4.06 Bohr mag/cell

     iteration # 13     ecut=    49.00 Ry     beta= 0.20
     Davidson diagonalization with overlap

---- Real-time Memory Report at c_bands before calling an iterative solver
           112 MiB given to the printing process from OS
            71 MiB allocation reported by mallinfo(arena+hblkhd)
        238494 MiB available memory on the node where the printing process lives
------------------
     ethr =  5.54E-08,  avg # of iterations =  1.8

     =================== HUBBARD OCCUPATIONS ===================
     ------------------------ ATOM    1 ------------------------
     Tr[ns(  1)] (up, down, total) =   4.97229  3.60193  8.57422
     Atomic magnetic moment for atom   1 =   1.37037
     SPIN  1
     eigenvalues:
       0.993  0.993  0.994  0.996  0.996
     eigenvectors (columns):
      -0.000  0.000 -1.000 -0.000  0.000
       0.221  0.373 -0.000 -0.770  0.469
       0.373 -0.221 -0.000  0.469  0.770
       0.775 -0.460 -0.000 -0.225 -0.370
       0.460  0.775 -0.000  0.370 -0.225
     occupation matrix ns (before diag.):
       0.994  0.000  0.000  0.000  0.000
       0.000  0.995  0.000 -0.000 -0.001
       0.000  0.000  0.995 -0.001  0.000
       0.000 -0.000 -0.001  0.994 -0.000
       0.000 -0.001  0.000 -0.000  0.994
     SPIN  2
     eigenvalues:
       0.317  0.317  0.989  0.989  0.990
     eigenvectors (columns):
       0.000  0.000 -0.000  0.000  1.000
      -0.197  0.798  0.325  0.467  0.000
       0.798  0.197  0.467 -0.325  0.000
      -0.553 -0.136  0.675 -0.469  0.000
       0.136 -0.553  0.469  0.675  0.000
     occupation matrix ns (before diag.):
       0.990  0.000  0.000  0.000  0.000
       0.000  0.535  0.000 -0.000  0.315
       0.000  0.000  0.535  0.315  0.000
       0.000 -0.000  0.315  0.771 -0.000
       0.000  0.315  0.000 -0.000  0.771
     ------------------------ ATOM    2 ------------------------
     Tr[ns(  2)] (up, down, total) =   3.60185  4.97229  8.57414
     Atomic magnetic moment for atom   2 =  -1.37045
     SPIN  1
     eigenvalues:
       0.317  0.317  0.989  0.989  0.990
     eigenvectors (columns):
       0.000  0.000 -0.000  0.000  1.000
      -0.200  0.797  0.325  0.467  0.000
       0.797  0.200  0.467 -0.325  0.000
      -0.552 -0.138  0.675 -0.469  0.000
       0.138 -0.552  0.469  0.675  0.000
     occupation matrix ns (before diag.):
       0.990  0.000  0.000  0.000  0.000
       0.000  0.535  0.000 -0.000  0.315
       0.000  0.000  0.535  0.315  0.000
       0.000 -0.000  0.315  0.771 -0.000
       0.000  0.315  0.000 -0.000  0.771
     SPIN  2
     eigenvalues:
       0.993  0.993  0.994  0.996  0.996
     eigenvectors (columns):
      -0.000  0.000 -1.000 -0.000  0.000
       0.221  0.373 -0.000 -0.770  0.468
       0.373 -0.221 -0.000  0.468  0.770
       0.775 -0.460 -0.000 -0.225 -0.370
       0.460  0.775 -0.000  0.370 -0.225
     occupation matrix ns (before diag.):
       0.994  0.000  0.000  0.000  0.000
       0.000  0.995  0.000 -0.000 -0.001
       0.000  0.000  0.995 -0.001  0.000
       0.000 -0.000 -0.001  0.994 -0.000
       0.000 -0.001  0.000 -0.000  0.994

     Number of occupied Hubbard levels =   17.1484

     HUBBARD ENERGY =    0.2169  (Ry)

     total cpu time spent up to now is       27.3 secs

     total energy              =    -770.45477162 Ry
     estimated scf accuracy    <       0.00000725 Ry

     total magnetization       =    -0.00 Bohr mag/cell
     absolute magnetization    =     4.06 Bohr mag/cell

     iteration # 14     ecut=    49.00 Ry     beta= 0.20
     Davidson diagonalization with overlap

---- Real-time Memory Report at c_bands before calling an iterative solver
           112 MiB given to the printing process from OS
            71 MiB allocation reported by mallinfo(arena+hblkhd)
        238495 MiB available memory on the node where the printing process lives
------------------
     ethr =  1.13E-08,  avg # of iterations =  2.1

     =================== HUBBARD OCCUPATIONS ===================
     ------------------------ ATOM    1 ------------------------
     Tr[ns(  1)] (up, down, total) =   4.97234  3.60120  8.57354
     Atomic magnetic moment for atom   1 =   1.37114
     SPIN  1
     eigenvalues:
       0.993  0.993  0.994  0.996  0.996
     eigenvectors (columns):
      -0.000  0.000 -1.000  0.000 -0.000
       0.224  0.376 -0.000  0.765 -0.473
       0.376 -0.224 -0.000 -0.473 -0.765
       0.772 -0.460 -0.000  0.230  0.372
       0.460  0.772 -0.000 -0.372  0.230
     occupation matrix ns (before diag.):
       0.994  0.000  0.000  0.000  0.000
       0.000  0.995  0.000 -0.000 -0.001
       0.000  0.000  0.995 -0.001  0.000
       0.000 -0.000 -0.001  0.994 -0.000
       0.000 -0.001  0.000 -0.000  0.994
     SPIN  2
     eigenvalues:
       0.316  0.316  0.989  0.989  0.990
     eigenvectors (columns):
       0.000  0.000 -0.000  0.000  1.000
      -0.177  0.801  0.327  0.469  0.000
       0.801  0.177  0.469 -0.327  0.000
      -0.558 -0.123  0.673 -0.469  0.000
       0.123 -0.558  0.469  0.673  0.000
     occupation matrix ns (before diag.):
       0.990  0.000  0.000  0.000  0.000
       0.000  0.536  0.000 -0.000  0.316
       0.000  0.000  0.536  0.316  0.000
       0.000 -0.000  0.316  0.769 -0.000
       0.000  0.316  0.000 -0.000  0.769
     ------------------------ ATOM    2 ------------------------
     Tr[ns(  2)] (up, down, total) =   3.60124  4.97234  8.57358
     Atomic magnetic moment for atom   2 =  -1.37111
     SPIN  1
     eigenvalues:
       0.316  0.316  0.989  0.989  0.990
     eigenvectors (columns):
       0.000  0.000 -0.000  0.000  1.000
      -0.177  0.801  0.327  0.469  0.000
       0.801  0.177  0.469 -0.327  0.000
      -0.558 -0.123  0.673 -0.470  0.000
       0.123 -0.558  0.470  0.673  0.000
     occupation matrix ns (before diag.):
       0.990  0.000  0.000  0.000  0.000
       0.000  0.536  0.000 -0.000  0.316
       0.000  0.000  0.536  0.316  0.000
       0.000 -0.000  0.316  0.769 -0.000
       0.000  0.316  0.000 -0.000  0.769
     SPIN  2
     eigenvalues:
       0.993  0.993  0.994  0.996  0.996
     eigenvectors (columns):
      -0.000  0.000 -1.000  0.000 -0.000
       0.224  0.376 -0.000  0.764 -0.474
       0.376 -0.224 -0.000 -0.474 -0.764
       0.772 -0.461 -0.000  0.231  0.372
       0.461  0.772 -0.000 -0.372  0.231
     occupation matrix ns (before diag.):
       0.994  0.000  0.000  0.000  0.000
       0.000  0.995  0.000 -0.000 -0.001
       0.000  0.000  0.995 -0.001  0.000
       0.000 -0.000 -0.001  0.994 -0.000
       0.000 -0.001  0.000 -0.000  0.994

     Number of occupied Hubbard levels =   17.1471

     HUBBARD ENERGY =    0.2169  (Ry)

     total cpu time spent up to now is       28.1 secs

     total energy              =    -770.45478069 Ry
     estimated scf accuracy    <       0.00000314 Ry

     total magnetization       =     0.00 Bohr mag/cell
     absolute magnetization    =     4.06 Bohr mag/cell

     iteration # 15     ecut=    49.00 Ry     beta= 0.20
     Davidson diagonalization with overlap

---- Real-time Memory Report at c_bands before calling an iterative solver
           112 MiB given to the printing process from OS
            71 MiB allocation reported by mallinfo(arena+hblkhd)
        238496 MiB available memory on the node where the printing process lives
------------------
     ethr =  4.90E-09,  avg # of iterations =  1.2

     =================== HUBBARD OCCUPATIONS ===================
     ------------------------ ATOM    1 ------------------------
     Tr[ns(  1)] (up, down, total) =   4.97232  3.60119  8.57351
     Atomic magnetic moment for atom   1 =   1.37113
     SPIN  1
     eigenvalues:
       0.993  0.993  0.994  0.996  0.996
     eigenvectors (columns):
      -0.000  0.000 -1.000  0.000 -0.000
       0.224  0.376 -0.000  0.764 -0.474
       0.376 -0.224 -0.000 -0.474 -0.764
       0.772 -0.461 -0.000  0.231  0.372
       0.461  0.772 -0.000 -0.372  0.231
     occupation matrix ns (before diag.):
       0.994  0.000  0.000  0.000  0.000
       0.000  0.995  0.000 -0.000 -0.001
       0.000  0.000  0.995 -0.001  0.000
       0.000 -0.000 -0.001  0.994 -0.000
       0.000 -0.001  0.000 -0.000  0.994
     SPIN  2
     eigenvalues:
       0.316  0.316  0.989  0.989  0.990
     eigenvectors (columns):
       0.000  0.000 -0.000  0.000  1.000
      -0.176  0.801  0.327  0.469  0.000
       0.801  0.176  0.469 -0.327  0.000
      -0.558 -0.122  0.673 -0.469  0.000
       0.122 -0.558  0.469  0.673  0.000
     occupation matrix ns (before diag.):
       0.990  0.000  0.000  0.000  0.000
       0.000  0.536  0.000 -0.000  0.316
       0.000  0.000  0.536  0.316  0.000
       0.000 -0.000  0.316  0.769 -0.000
       0.000  0.316  0.000 -0.000  0.769
     ------------------------ ATOM    2 ------------------------
     Tr[ns(  2)] (up, down, total) =   3.60122  4.97232  8.57354
     Atomic magnetic moment for atom   2 =  -1.37110
     SPIN  1
     eigenvalues:
       0.316  0.316  0.989  0.989  0.990
     eigenvectors (columns):
       0.000  0.000 -0.000  0.000  1.000
      -0.175  0.802  0.327  0.469  0.000
       0.802  0.175  0.469 -0.327  0.000
      -0.559 -0.122  0.673 -0.470  0.000
       0.122 -0.559  0.470  0.673  0.000
     occupation matrix ns (before diag.):
       0.990  0.000  0.000  0.000  0.000
       0.000  0.536  0.000 -0.000  0.316
       0.000  0.000  0.536  0.316  0.000
       0.000 -0.000  0.316  0.769 -0.000
       0.000  0.316  0.000 -0.000  0.769
     SPIN  2
     eigenvalues:
       0.993  0.993  0.994  0.996  0.996
     eigenvectors (columns):
      -0.000  0.000 -1.000  0.000 -0.000
       0.224  0.376 -0.000  0.763 -0.475
       0.376 -0.224 -0.000 -0.475 -0.763
       0.772 -0.461 -0.000  0.231  0.372
       0.461  0.772 -0.000 -0.372  0.231
     occupation matrix ns (before diag.):
       0.994  0.000  0.000  0.000  0.000
       0.000  0.995  0.000 -0.000 -0.001
       0.000  0.000  0.995 -0.001  0.000
       0.000 -0.000 -0.001  0.994 -0.000
       0.000 -0.001  0.000 -0.000  0.994

     Number of occupied Hubbard levels =   17.1471

     HUBBARD ENERGY =    0.2167  (Ry)

     total cpu time spent up to now is       28.8 secs

     total energy              =    -770.45478158 Ry
     estimated scf accuracy    <       0.00000202 Ry

     total magnetization       =     0.00 Bohr mag/cell
     absolute magnetization    =     4.06 Bohr mag/cell

     iteration # 16     ecut=    49.00 Ry     beta= 0.20
     Davidson diagonalization with overlap

---- Real-time Memory Report at c_bands before calling an iterative solver
           112 MiB given to the printing process from OS
            71 MiB allocation reported by mallinfo(arena+hblkhd)
        238492 MiB available memory on the node where the printing process lives
------------------
     ethr =  3.15E-09,  avg # of iterations =  1.0

     =================== HUBBARD OCCUPATIONS ===================
     ------------------------ ATOM    1 ------------------------
     Tr[ns(  1)] (up, down, total) =   4.97234  3.60096  8.57331
     Atomic magnetic moment for atom   1 =   1.37138
     SPIN  1
     eigenvalues:
       0.993  0.993  0.994  0.996  0.996
     eigenvectors (columns):
      -0.000  0.000 -1.000  0.000 -0.000
       0.225  0.377 -0.000  0.763 -0.475
       0.377 -0.225 -0.000 -0.475 -0.763
       0.772 -0.461 -0.000  0.232  0.372
       0.461  0.772 -0.000 -0.372  0.232
     occupation matrix ns (before diag.):
       0.994  0.000  0.000  0.000  0.000
       0.000  0.995  0.000 -0.000 -0.001
       0.000  0.000  0.995 -0.001  0.000
       0.000 -0.000 -0.001  0.994 -0.000
       0.000 -0.001  0.000 -0.000  0.994
     SPIN  2
     eigenvalues:
       0.316  0.316  0.989  0.989  0.990
     eigenvectors (columns):
       0.000  0.000 -0.000  0.000  1.000
      -0.173  0.802  0.327  0.469  0.000
       0.802  0.173  0.469 -0.327  0.000
      -0.559 -0.121  0.673 -0.469  0.000
       0.121 -0.559  0.469  0.673  0.000
     occupation matrix ns (before diag.):
       0.990  0.000  0.000  0.000  0.000
       0.000  0.536  0.000 -0.000  0.316
       0.000  0.000  0.536  0.316  0.000
       0.000 -0.000  0.316  0.769 -0.000
       0.000  0.316  0.000 -0.000  0.769
     ------------------------ ATOM    2 ------------------------
     Tr[ns(  2)] (up, down, total) =   3.60096  4.97234  8.57330
     Atomic magnetic moment for atom   2 =  -1.37138
     SPIN  1
     eigenvalues:
       0.316  0.316  0.989  0.989  0.990
     eigenvectors (columns):
       0.000  0.000 -0.000  0.000  1.000
      -0.174  0.802  0.327  0.469  0.000
       0.802  0.174  0.469 -0.327  0.000
      -0.559 -0.121  0.673 -0.469  0.000
       0.121 -0.559  0.469  0.673  0.000
     occupation matrix ns (before diag.):
       0.990  0.000  0.000  0.000  0.000
       0.000  0.536  0.000 -0.000  0.316
       0.000  0.000  0.536  0.316  0.000
       0.000 -0.000  0.316  0.769 -0.000
       0.000  0.316  0.000 -0.000  0.769
     SPIN  2
     eigenvalues:
       0.993  0.993  0.994  0.996  0.996
     eigenvectors (columns):
      -0.000  0.000 -1.000  0.000 -0.000
       0.225  0.377 -0.000  0.764 -0.474
       0.377 -0.225 -0.000 -0.474 -0.764
       0.772 -0.461 -0.000  0.231  0.373
       0.461  0.772 -0.000 -0.373  0.231
     occupation matrix ns (before diag.):
       0.994  0.000  0.000  0.000  0.000
       0.000  0.995  0.000 -0.000 -0.001
       0.000  0.000  0.995 -0.001  0.000
       0.000 -0.000 -0.001  0.994 -0.000
       0.000 -0.001  0.000 -0.000  0.994

     Number of occupied Hubbard levels =   17.1466

     HUBBARD ENERGY =    0.2164  (Ry)

     total cpu time spent up to now is       29.4 secs

     total energy              =    -770.45478237 Ry
     estimated scf accuracy    <       0.00000136 Ry

     total magnetization       =    -0.00 Bohr mag/cell
     absolute magnetization    =     4.06 Bohr mag/cell

     iteration # 17     ecut=    49.00 Ry     beta= 0.20
     Davidson diagonalization with overlap

---- Real-time Memory Report at c_bands before calling an iterative solver
           112 MiB given to the printing process from OS
            71 MiB allocation reported by mallinfo(arena+hblkhd)
        238496 MiB available memory on the node where the printing process lives
------------------
