
     Program PWSCF v.7.5 starts on  5Mar2026 at 18:31:56 
        Git branch: HEAD
        Last git commit: 770a0b2d12928a67048e2f3da8d10d057e52179e
        Last git commit date: Tue Aug 19 09:57:12 2025 +0000
        Last git commit subject: Merge branch 'QE-7.5-RC' into 'master'

     This program is part of the open-source Quantum ESPRESSO suite
     for quantum simulation of materials; please cite
         "P. Giannozzi et al., J. Phys.:Condens. Matter 21 395502 (2009);
         "P. Giannozzi et al., J. Phys.:Condens. Matter 29 465901 (2017);
         "P. Giannozzi et al., J. Chem. Phys. 152 154105 (2020);
          URL http://www.quantum-espresso.org", 
     in publications or presentations arising from this work. More details at
     http://www.quantum-espresso.org/quote

     Parallel version (MPI), running on   256 processors

     MPI processes distributed on     8 nodes
     240273 MiB available memory on the printing compute node when the environment starts

     Waiting for input...
     Reading input from standard input

     Current dimensions of program PWSCF are:
     Max number of different atomic species (ntypx) = 10
     Max number of k-points (npk) =  40000
     Max angular momentum in pseudopotentials (lmaxx) =  4

     K-points division:     npool     =       8
     R & G space division:  proc/nbgrp/npool/nimage =      32
     Subspace diagonalization in iterative solution of the eigenvalue problem:
     a serial algorithm will be used


     Parallelization info
     --------------------
     sticks:   dense  smooth     PW     G-vecs:    dense   smooth      PW
     Min          96      96     29                 1853     1853     311
     Max          97      97     30                 1855     1855     313
     Sum        3099    3099    945                59333    59333    9983

     Using Slab Decomposition



     bravais-lattice index     =            5
     lattice parameter (alat)  =      26.8360  a.u.
     unit-cell volume          =    1281.9023 (a.u.)^3
     number of atoms/cell      =            6
     number of atomic types    =            3
     number of electrons       =        64.00 (up:  32.00, down:  32.00)
     number of Kohn-Sham states=           32
     kinetic-energy cutoff     =      49.0000  Ry
     charge density cutoff     =     196.0000  Ry
     scf convergence threshold =      1.0E-10
     mixing beta               =       0.2000
     number of iterations used =            8  plain     mixing
     Exchange-correlation= PBESOL
                           (   1   4  10   8   0   0   0)
     Hubbard projectors: ortho-atomic
     Hubbard parameters of DFT+U (Dudarev formulation) in eV:
     U(Ni1-3d) =  5.5187
     U(Ni2-3d) =  5.5187

     Internal variables: lda_plus_u =T, lda_plus_u_kind = 0

     Internal variables: orbital_resolved =F, hub_pot_fix =F, apply_U = F

     celldm(1)=  26.836001  celldm(2)=   0.000000  celldm(3)=   0.000000
     celldm(4)=   0.961200  celldm(5)=   0.000000  celldm(6)=   0.000000

     crystal axes: (cart. coord. in units of alat)
               a(1) = (   0.139284  -0.080416   0.986982 )  
               a(2) = (   0.000000   0.160831   0.986982 )  
               a(3) = (  -0.139284  -0.080416   0.986982 )  

     reciprocal axes: (cart. coord. in units 2 pi/alat)
               b(1) = (  3.589791 -2.072567  0.337730 )  
               b(2) = (  0.000000  4.145133  0.337730 )  
               b(3) = ( -3.589791 -2.072567  0.337730 )  


     PseudoPot. # 1 for Ni read from file:
     ./Pseudos/Ni_pbesol.upf
     MD5 check sum: 3ec56ad6bf78c9cc1bbec815420e1c7d
     Pseudo is Norm-conserving + core correction, Zval = 18.0
     Generated using ONCVPSP code by D. R. Hamann
     Using radial grid of 1356 points,  6 beta functions with: 
                l(1) =   0
                l(2) =   0
                l(3) =   1
                l(4) =   1
                l(5) =   2
                l(6) =   2

     PseudoPot. # 2 for Ni read from file:
     ./Pseudos/Ni_pbesol.upf
     MD5 check sum: 3ec56ad6bf78c9cc1bbec815420e1c7d
     Pseudo is Norm-conserving + core correction, Zval = 18.0
     Generated using ONCVPSP code by D. R. Hamann
     Using radial grid of 1356 points,  6 beta functions with: 
                l(1) =   0
                l(2) =   0
                l(3) =   1
                l(4) =   1
                l(5) =   2
                l(6) =   2

     PseudoPot. # 3 for I  read from file:
     ./Pseudos/I_pbesol.upf
     MD5 check sum: 80ed5ceb2eb9c553cfb6760a299d9c5b
     Pseudo is Norm-conserving + core correction, Zval =  7.0
     Generated using ONCVPSP code by D. R. Hamann
     Using radial grid of 1182 points,  6 beta functions with: 
                l(1) =   0
                l(2) =   0
                l(3) =   1
                l(4) =   1
                l(5) =   2
                l(6) =   2

     atomic species   valence    mass     pseudopotential
     Ni1              18.00    58.69340     Ni( 1.00)
     Ni2              18.00    58.69340     Ni( 1.00)
     I                 7.00   126.90447     I ( 1.00)

     Starting magnetic structure 
     atomic species   magnetization
     Ni1             0.600
     Ni2            -0.600
     I               0.000

     12 Sym. Ops., with inversion, found


                                    s                        frac. trans.

      isym =  1     identity                                     

 cryst.   s( 1) = (     1          0          0      )
                  (     0          1          0      )
                  (     0          0          1      )

 cart.    s( 1) = (  1.0000000  0.0000000  0.0000000 )
                  (  0.0000000  1.0000000  0.0000000 )
                  ( -0.0000000 -0.0000000  1.0000000 )


      isym =  2     180 deg rotation - cart. axis [1,0,0]        

 cryst.   s( 2) = (     0          0         -1      )
                  (     0         -1          0      )
                  (    -1          0          0      )

 cart.    s( 2) = (  1.0000000 -0.0000000 -0.0000000 )
                  (  0.0000000 -1.0000000 -0.0000000 )
                  ( -0.0000000  0.0000000 -1.0000000 )


      isym =  3     120 deg rotation - cryst. axis [0,0,1]       

 cryst.   s( 3) = (     0          1          0      )
                  (     0          0          1      )
                  (     1          0          0      )

 cart.    s( 3) = ( -0.5000000 -0.8660254 -0.0000000 )
                  (  0.8660254 -0.5000000 -0.0000000 )
                  (  0.0000000  0.0000000  1.0000000 )


      isym =  4     120 deg rotation - cryst. axis [0,0,-1]      

 cryst.   s( 4) = (     0          0          1      )
                  (     1          0          0      )
                  (     0          1          0      )

 cart.    s( 4) = ( -0.5000000  0.8660254  0.0000000 )
                  ( -0.8660254 -0.5000000 -0.0000000 )
                  (  0.0000000 -0.0000000  1.0000000 )


      isym =  5     180 deg rotation - cryst. axis [0,1,0]       

 cryst.   s( 5) = (     0         -1          0      )
                  (    -1          0          0      )
                  (     0          0         -1      )

 cart.    s( 5) = ( -0.5000000 -0.8660254 -0.0000000 )
                  ( -0.8660254  0.5000000  0.0000000 )
                  (  0.0000000  0.0000000 -1.0000000 )


      isym =  6     180 deg rotation - cryst. axis [1,1,0]       

 cryst.   s( 6) = (    -1          0          0      )
                  (     0          0         -1      )
                  (     0         -1          0      )

 cart.    s( 6) = ( -0.5000000  0.8660254  0.0000000 )
                  (  0.8660254  0.5000000  0.0000000 )
                  ( -0.0000000 -0.0000000 -1.0000000 )


      isym =  7     inversion                                    

 cryst.   s( 7) = (    -1          0          0      )
                  (     0         -1          0      )
                  (     0          0         -1      )

 cart.    s( 7) = ( -1.0000000 -0.0000000 -0.0000000 )
                  ( -0.0000000 -1.0000000 -0.0000000 )
                  (  0.0000000  0.0000000 -1.0000000 )


      isym =  8     inv. 180 deg rotation - cart. axis [1,0,0]   

 cryst.   s( 8) = (     0          0          1      )
                  (     0          1          0      )
                  (     1          0          0      )

 cart.    s( 8) = ( -1.0000000  0.0000000  0.0000000 )
                  ( -0.0000000  1.0000000  0.0000000 )
                  (  0.0000000 -0.0000000  1.0000000 )


      isym =  9     inv. 120 deg rotation - cryst. axis [0,0,1]  

 cryst.   s( 9) = (     0         -1          0      )
                  (     0          0         -1      )
                  (    -1          0          0      )

 cart.    s( 9) = (  0.5000000  0.8660254  0.0000000 )
                  ( -0.8660254  0.5000000  0.0000000 )
                  ( -0.0000000 -0.0000000 -1.0000000 )


      isym = 10     inv. 120 deg rotation - cryst. axis [0,0,-1] 

 cryst.   s(10) = (     0          0         -1      )
                  (    -1          0          0      )
                  (     0         -1          0      )

 cart.    s(10) = (  0.5000000 -0.8660254 -0.0000000 )
                  (  0.8660254  0.5000000  0.0000000 )
                  ( -0.0000000  0.0000000 -1.0000000 )


      isym = 11     inv. 180 deg rotation - cryst. axis [0,1,0]  

 cryst.   s(11) = (     0          1          0      )
                  (     1          0          0      )
                  (     0          0          1      )

 cart.    s(11) = (  0.5000000  0.8660254  0.0000000 )
                  (  0.8660254 -0.5000000 -0.0000000 )
                  ( -0.0000000 -0.0000000  1.0000000 )


      isym = 12     inv. 180 deg rotation - cryst. axis [1,1,0]  

 cryst.   s(12) = (     1          0          0      )
                  (     0          0          1      )
                  (     0          1          0      )

 cart.    s(12) = (  0.5000000 -0.8660254 -0.0000000 )
                  ( -0.8660254 -0.5000000 -0.0000000 )
                  (  0.0000000  0.0000000  1.0000000 )


     point group D_3d (-3m) 
     there are  6 classes
     the character table:

       E     2C3   3C2'  i     2S6   3s_d 
A_1g   1.00  1.00  1.00  1.00  1.00  1.00
A_2g   1.00  1.00 -1.00  1.00  1.00 -1.00
E_g    2.00 -1.00  0.00  2.00 -1.00  0.00
A_1u   1.00  1.00  1.00 -1.00 -1.00 -1.00
A_2u   1.00  1.00 -1.00 -1.00 -1.00  1.00
E_u    2.00 -1.00  0.00 -2.00  1.00  0.00

     the symmetry operations in each class and the name of the first element:

     E        1
          identity                                               
     2C3      3    4
          120 deg rotation - cryst. axis [0,0,1]                 
     3C2'     2    5    6
          180 deg rotation - cart. axis [1,0,0]                  
     i        7
          inversion                                              
     2S6      9   10
          inv. 120 deg rotation - cryst. axis [0,0,1]            
     3s_d     8   11   12
          inv. 180 deg rotation - cart. axis [1,0,0]             

   Cartesian axes

     site n.     atom                  positions (alat units)
         1        Ni1    tau(   1) = (   0.0000000   0.0000000   0.0000000  )
         2        Ni2    tau(   2) = (   0.1392839   0.0804156   0.4934910  )
         3        I      tau(   3) = (  -0.0000000  -0.0000000   0.3856062  )
         4        I      tau(   4) = (   0.1392839   0.0804156   0.8790972  )
         5        I      tau(   5) = (   0.1392839   0.0804156   0.1078847  )
         6        I      tau(   6) = (   0.1392839  -0.0804156   0.6013757  )

   Crystallographic axes

     site n.     atom                  positions (cryst. coord.)
         1        Ni1    tau(   1) = (  0.0000000  0.0000000  0.0000000  )
         2        Ni2    tau(   2) = (  0.5000000  0.5000000 -0.5000000  )
         3        I      tau(   3) = (  0.1302308  0.1302308  0.1302308  )
         4        I      tau(   4) = (  0.6302308  0.6302308 -0.3697692  )
         5        I      tau(   5) = (  0.3697692  0.3697692 -0.6302308  )
         6        I      tau(   6) = (  0.8697692 -0.1302308 -0.1302308  )

     number of k points=    13
                       cart. coord. in units 2pi/alat
        k(    1) = (   0.0000000   0.0000000   0.0000000), wk =   0.0156250
        k(    2) = (  -0.8974477  -0.5181417   0.0844325), wk =   0.0937500
        k(    3) = (   1.7948954   1.0362833  -0.1688650), wk =   0.0468750
        k(    4) = (  -0.8974477   0.5181417   0.1688650), wk =   0.0937500
        k(    5) = (   1.7948954   2.0725667  -0.0844325), wk =   0.1875000
        k(    6) = (   0.8974477   1.5544250   0.0000000), wk =   0.0937500
        k(    7) = (   1.7948954  -1.0362833  -0.3377299), wk =   0.0468750
        k(    8) = (   0.0000000   0.0000000   0.2532974), wk =   0.0312500
        k(    9) = (   2.6923431   1.5544250   0.0000000), wk =   0.0937500
        k(   10) = (   1.7948954   1.0362833   0.0844325), wk =   0.0937500
        k(   11) = (   2.6923431  -1.5544250  -0.2532974), wk =   0.0937500
        k(   12) = (   1.7948954  -2.0725667  -0.1688650), wk =   0.0937500
        k(   13) = (   0.0000000   0.0000000  -0.5065949), wk =   0.0156250

                       cryst. coord.
        k(    1) = (   0.0000000   0.0000000   0.0000000), wk =   0.0156250
        k(    2) = (  -0.0000000  -0.0000000   0.2500000), wk =   0.0937500
        k(    3) = (   0.0000000   0.0000000  -0.5000000), wk =   0.0468750
        k(    4) = (  -0.0000000   0.2500000   0.2500000), wk =   0.0937500
        k(    5) = (  -0.0000000   0.2500000  -0.5000000), wk =   0.1875000
        k(    6) = (  -0.0000000   0.2500000  -0.2500000), wk =   0.0937500
        k(    7) = (   0.0000000  -0.5000000  -0.5000000), wk =   0.0468750
        k(    8) = (   0.2500000   0.2500000   0.2500000), wk =   0.0312500
        k(    9) = (   0.2500000   0.2500000  -0.5000000), wk =   0.0937500
        k(   10) = (   0.2500000   0.2500000  -0.2500000), wk =   0.0937500
        k(   11) = (   0.2500000  -0.5000000  -0.5000000), wk =   0.0937500
        k(   12) = (   0.2500000  -0.5000000  -0.2500000), wk =   0.0937500
        k(   13) = (  -0.5000000  -0.5000000  -0.5000000), wk =   0.0156250

     Dense  grid:    59333 G-vectors     FFT dimensions: ( 120, 120, 120)

     Dynamical RAM for                 wfc:       0.11 MB

     Dynamical RAM for     wfc (w. buffer):       0.57 MB

     Dynamical RAM for             U proj.:       0.04 MB

     Dynamical RAM for  U proj. (w. buff.):       0.18 MB

     Dynamical RAM for           str. fact:       0.08 MB

     Dynamical RAM for           local pot:       0.00 MB

     Dynamical RAM for          nlocal pot:       0.38 MB

     Dynamical RAM for                qrad:       3.37 MB

     Dynamical RAM for          rho,v,vnew:       2.81 MB

     Dynamical RAM for               rhoin:       0.94 MB

     Dynamical RAM for            rho*nmix:       0.91 MB

     Dynamical RAM for           G-vectors:       0.12 MB

     Dynamical RAM for          h,s,v(r/c):       0.19 MB

     Dynamical RAM for          <psi|beta>:       0.05 MB

     Dynamical RAM for                 psi:       0.23 MB

     Dynamical RAM for                hpsi:       0.23 MB

     Dynamical RAM for      wfcinit/wfcrot:       0.25 MB

     Estimated static dynamical RAM per process >      11.20 MB

     Estimated max dynamical RAM per process >      12.80 MB

     Estimated total dynamical RAM >       3.00 GB

     Check: negative core charge=   -0.000024
     Generating pointlists ...
     new r_m :   0.0799 (alat units)  2.1438 (a.u.) for type    1
     new r_m :   0.0799 (alat units)  2.1438 (a.u.) for type    2
     new r_m :   0.0799 (alat units)  2.1438 (a.u.) for type    3

     Initial potential from superposition of free atoms

     starting charge      63.9993, renormalised to      64.0000

     HUBBARD ENERGY =    0.4867  (Ry)

     STARTING HUBBARD OCCUPATIONS:

     =================== HUBBARD OCCUPATIONS ===================
     ------------------------ ATOM    1 ------------------------
     Tr[ns(  1)] (up, down, total) =   5.00000  3.00000  8.00000
     Atomic magnetic moment for atom   1 =   2.00000
     SPIN  1
     eigenvalues:
       1.000  1.000  1.000  1.000  1.000
     eigenvectors (columns):
       1.000  0.000  0.000  0.000  0.000
       0.000  1.000  0.000  0.000  0.000
       0.000  0.000  1.000  0.000  0.000
       0.000  0.000  0.000  1.000  0.000
       0.000  0.000  0.000  0.000  1.000
     occupation matrix ns (before diag.):
       1.000  0.000  0.000  0.000  0.000
       0.000  1.000  0.000  0.000  0.000
       0.000  0.000  1.000  0.000  0.000
       0.000  0.000  0.000  1.000  0.000
       0.000  0.000  0.000  0.000  1.000
     SPIN  2
     eigenvalues:
       0.600  0.600  0.600  0.600  0.600
     eigenvectors (columns):
       1.000  0.000  0.000  0.000  0.000
       0.000  1.000  0.000  0.000  0.000
       0.000  0.000  1.000  0.000  0.000
       0.000  0.000  0.000  1.000  0.000
       0.000  0.000  0.000  0.000  1.000
     occupation matrix ns (before diag.):
       0.600  0.000  0.000  0.000  0.000
       0.000  0.600  0.000  0.000  0.000
       0.000  0.000  0.600  0.000  0.000
       0.000  0.000  0.000  0.600  0.000
       0.000  0.000  0.000  0.000  0.600
     ------------------------ ATOM    2 ------------------------
     Tr[ns(  2)] (up, down, total) =   3.00000  5.00000  8.00000
     Atomic magnetic moment for atom   2 =  -2.00000
     SPIN  1
     eigenvalues:
       0.600  0.600  0.600  0.600  0.600
     eigenvectors (columns):
       1.000  0.000  0.000  0.000  0.000
       0.000  1.000  0.000  0.000  0.000
       0.000  0.000  1.000  0.000  0.000
       0.000  0.000  0.000  1.000  0.000
       0.000  0.000  0.000  0.000  1.000
     occupation matrix ns (before diag.):
       0.600  0.000  0.000  0.000  0.000
       0.000  0.600  0.000  0.000  0.000
       0.000  0.000  0.600  0.000  0.000
       0.000  0.000  0.000  0.600  0.000
       0.000  0.000  0.000  0.000  0.600
     SPIN  2
     eigenvalues:
       1.000  1.000  1.000  1.000  1.000
     eigenvectors (columns):
       1.000  0.000  0.000  0.000  0.000
       0.000  1.000  0.000  0.000  0.000
       0.000  0.000  1.000  0.000  0.000
       0.000  0.000  0.000  1.000  0.000
       0.000  0.000  0.000  0.000  1.000
     occupation matrix ns (before diag.):
       1.000  0.000  0.000  0.000  0.000
       0.000  1.000  0.000  0.000  0.000
       0.000  0.000  1.000  0.000  0.000
       0.000  0.000  0.000  1.000  0.000
       0.000  0.000  0.000  0.000  1.000

     Number of occupied Hubbard levels =   16.0000

     Atomic wfc used for Hubbard projectors are orthogonalized

     Starting wfcs are   36 randomized atomic wfcs

     total cpu time spent up to now is       18.9 secs

     per-process dynamical memory:    77.8 Mb

     Self-consistent Calculation

     iteration #  1     ecut=    49.00 Ry     beta= 0.20
     Davidson diagonalization with overlap

---- Real-time Memory Report at c_bands before calling an iterative solver
           100 MiB given to the printing process from OS
            75 MiB allocation reported by mallinfo(arena+hblkhd)
        239571 MiB available memory on the node where the printing process lives
------------------
     ethr =  1.00E-02,  avg # of iterations =  3.3

     =================== HUBBARD OCCUPATIONS ===================
     ------------------------ ATOM    1 ------------------------
     Tr[ns(  1)] (up, down, total) =   4.98879  1.94601  6.93480
     Atomic magnetic moment for atom   1 =   3.04278
     SPIN  1
     eigenvalues:
       0.998  0.998  0.998  0.998  0.998
     eigenvectors (columns):
      -0.000 -0.000  0.000  0.000 -1.000
      -0.037 -0.778 -0.381  0.498 -0.000
      -0.778  0.037 -0.498 -0.381 -0.000
       0.626 -0.030 -0.619 -0.473 -0.000
       0.030  0.626 -0.473  0.619 -0.000
     occupation matrix ns (before diag.):
       0.998  0.000  0.000  0.000  0.000
       0.000  0.998  0.000 -0.000  0.000
       0.000  0.000  0.998  0.000  0.000
       0.000 -0.000  0.000  0.998 -0.000
       0.000  0.000  0.000 -0.000  0.998
     SPIN  2
     eigenvalues:
       0.121  0.121  0.536  0.536  0.632
     eigenvectors (columns):
      -0.000  0.000 -0.000 -0.000  1.000
      -0.818 -0.170  0.334 -0.437  0.000
      -0.170  0.818  0.437  0.334  0.000
       0.112 -0.539  0.664  0.507  0.000
       0.539  0.112  0.507 -0.664  0.000
     occupation matrix ns (before diag.):
       0.632  0.000  0.000  0.000  0.000
       0.000  0.247  0.000 -0.000  0.190
       0.000  0.000  0.247  0.190  0.000
       0.000 -0.000  0.190  0.410 -0.000
       0.000  0.190  0.000 -0.000  0.410
     ------------------------ ATOM    2 ------------------------
     Tr[ns(  2)] (up, down, total) =   1.94565  4.98880  6.93445
     Atomic magnetic moment for atom   2 =  -3.04315
     SPIN  1
     eigenvalues:
       0.123  0.123  0.535  0.535  0.629
     eigenvectors (columns):
      -0.000  0.000 -0.000 -0.000  1.000
      -0.821 -0.176  0.329 -0.431  0.000
      -0.176  0.821  0.431  0.329  0.000
       0.114 -0.531  0.668  0.510  0.000
       0.531  0.114  0.510 -0.668  0.000
     occupation matrix ns (before diag.):
       0.629  0.000  0.000  0.000  0.000
       0.000  0.245  0.000 -0.000  0.188
       0.000  0.000  0.245  0.188  0.000
       0.000 -0.000  0.188  0.414 -0.000
       0.000  0.188  0.000 -0.000  0.414
     SPIN  2
     eigenvalues:
       0.998  0.998  0.998  0.998  0.998
     eigenvectors (columns):
       0.000 -0.000  0.000  0.000  1.000
       0.076 -0.761 -0.400  0.505  0.000
       0.761  0.076 -0.505 -0.400  0.000
      -0.641 -0.064 -0.599 -0.475  0.000
      -0.064  0.641 -0.475  0.599  0.000
     occupation matrix ns (before diag.):
       0.998  0.000  0.000  0.000  0.000
       0.000  0.998  0.000 -0.000  0.000
       0.000  0.000  0.998  0.000  0.000
       0.000 -0.000  0.000  0.998 -0.000
       0.000  0.000  0.000 -0.000  0.998

     Number of occupied Hubbard levels =   13.8693

     HUBBARD ENERGY =    0.3878  (Ry)

     total cpu time spent up to now is       20.0 secs

     total energy              =    -767.51841693 Ry
     estimated scf accuracy    <       7.38774362 Ry

     total magnetization       =    -0.00 Bohr mag/cell
     absolute magnetization    =     8.00 Bohr mag/cell

     iteration #  2     ecut=    49.00 Ry     beta= 0.20
     Davidson diagonalization with overlap

---- Real-time Memory Report at c_bands before calling an iterative solver
           108 MiB given to the printing process from OS
            74 MiB allocation reported by mallinfo(arena+hblkhd)
        238837 MiB available memory on the node where the printing process lives
------------------
     ethr =  1.00E-02,  avg # of iterations =  2.0

     =================== HUBBARD OCCUPATIONS ===================
     ------------------------ ATOM    1 ------------------------
     Tr[ns(  1)] (up, down, total) =   4.99235  2.18811  7.18046
     Atomic magnetic moment for atom   1 =   2.80423
     SPIN  1
     eigenvalues:
       0.998  0.998  0.998  0.999  0.999
     eigenvectors (columns):
       0.000  0.000 -1.000  0.000 -0.000
      -0.586  0.626  0.000  0.279  0.432
       0.626  0.586  0.000  0.432 -0.279
      -0.375 -0.352  0.000  0.721 -0.465
       0.352 -0.375  0.000  0.465  0.721
     occupation matrix ns (before diag.):
       0.998  0.000  0.000  0.000  0.000
       0.000  0.998  0.000 -0.000  0.000
       0.000  0.000  0.998  0.000  0.000
       0.000 -0.000  0.000  0.999 -0.000
       0.000  0.000  0.000 -0.000  0.999
     SPIN  2
     eigenvalues:
       0.137  0.137  0.597  0.597  0.721
     eigenvectors (columns):
      -0.000  0.000 -0.000 -0.000  1.000
      -0.796 -0.244  0.333 -0.443  0.000
      -0.244  0.796  0.443  0.333  0.000
       0.163 -0.530  0.665  0.500  0.000
       0.530  0.163  0.500 -0.665  0.000
     occupation matrix ns (before diag.):
       0.721  0.000  0.000  0.000  0.000
       0.000  0.278  0.000 -0.000  0.212
       0.000  0.000  0.278  0.212  0.000
       0.000 -0.000  0.212  0.456 -0.000
       0.000  0.212  0.000 -0.000  0.456
     ------------------------ ATOM    2 ------------------------
     Tr[ns(  2)] (up, down, total) =   2.18951  4.99235  7.18187
     Atomic magnetic moment for atom   2 =  -2.80284
     SPIN  1
     eigenvalues:
       0.139  0.139  0.597  0.597  0.717
     eigenvectors (columns):
      -0.000  0.000 -0.000 -0.000  1.000
      -0.808 -0.215  0.331 -0.439  0.000
      -0.215  0.808  0.439  0.331  0.000
       0.141 -0.531  0.667  0.503  0.000
       0.531  0.141  0.503 -0.667  0.000
     occupation matrix ns (before diag.):
       0.717  0.000  0.000  0.000  0.000
       0.000  0.277  0.000 -0.000  0.210
       0.000  0.000  0.277  0.210  0.000
       0.000 -0.000  0.210  0.459 -0.000
       0.000  0.210  0.000 -0.000  0.459
     SPIN  2
     eigenvalues:
       0.998  0.998  0.998  0.999  0.999
     eigenvectors (columns):
       0.000  0.000 -1.000  0.000 -0.000
      -0.569  0.639  0.000  0.282  0.435
       0.639  0.569  0.000  0.435 -0.282
      -0.387 -0.345  0.000  0.718 -0.465
       0.345 -0.387  0.000  0.465  0.718
     occupation matrix ns (before diag.):
       0.998  0.000  0.000  0.000  0.000
       0.000  0.998  0.000 -0.000  0.000
       0.000  0.000  0.998  0.000  0.000
       0.000 -0.000  0.000  0.999 -0.000
       0.000  0.000  0.000 -0.000  0.999

     Number of occupied Hubbard levels =   14.3623

     HUBBARD ENERGY =    0.3848  (Ry)

     total cpu time spent up to now is       20.6 secs

     total energy              =    -768.23151529 Ry
     estimated scf accuracy    <       3.48625842 Ry

     total magnetization       =    -0.00 Bohr mag/cell
     absolute magnetization    =     7.89 Bohr mag/cell

     iteration #  3     ecut=    49.00 Ry     beta= 0.20
     Davidson diagonalization with overlap

---- Real-time Memory Report at c_bands before calling an iterative solver
           109 MiB given to the printing process from OS
            74 MiB allocation reported by mallinfo(arena+hblkhd)
        238833 MiB available memory on the node where the printing process lives
------------------
     ethr =  5.45E-03,  avg # of iterations =  7.6

     =================== HUBBARD OCCUPATIONS ===================
     ------------------------ ATOM    1 ------------------------
     Tr[ns(  1)] (up, down, total) =   4.98388  4.61836  9.60224
     Atomic magnetic moment for atom   1 =   0.36553
     SPIN  1
     eigenvalues:
       0.997  0.997  0.997  0.997  0.997
     eigenvectors (columns):
       1.000  0.000 -0.000  0.000  0.000
      -0.000  0.477  0.515 -0.144 -0.697
      -0.000  0.515 -0.477 -0.697  0.144
      -0.000  0.523 -0.484  0.688 -0.142
      -0.000  0.484  0.523  0.142  0.688
     occupation matrix ns (before diag.):
       0.997  0.000  0.000  0.000  0.000
       0.000  0.997  0.000 -0.000 -0.000
       0.000  0.000  0.997 -0.000  0.000
       0.000 -0.000 -0.000  0.997 -0.000
       0.000 -0.000  0.000 -0.000  0.997
     SPIN  2
     eigenvalues:
       0.871  0.871  0.940  0.940  0.997
     eigenvectors (columns):
       0.000 -0.000 -0.000  0.000  1.000
       0.115 -0.317  0.940 -0.041  0.000
       0.317  0.115 -0.041 -0.940  0.000
      -0.885 -0.322 -0.015 -0.337  0.000
      -0.322  0.885  0.337 -0.015  0.000
     occupation matrix ns (before diag.):
       0.997  0.000  0.000  0.000  0.000
       0.000  0.932  0.000 -0.000  0.022
       0.000  0.000  0.932  0.022  0.000
       0.000 -0.000  0.022  0.879 -0.000
       0.000  0.022  0.000 -0.000  0.879
     ------------------------ ATOM    2 ------------------------
     Tr[ns(  2)] (up, down, total) =   4.59764  4.98416  9.58180
     Atomic magnetic moment for atom   2 =  -0.38652
     SPIN  1
     eigenvalues:
       0.872  0.872  0.929  0.929  0.996
     eigenvectors (columns):
       0.000 -0.000 -0.000  0.000  1.000
       0.134 -0.389  0.909  0.067  0.000
       0.389  0.134  0.067 -0.909  0.000
      -0.862 -0.296  0.030 -0.410  0.000
      -0.296  0.862  0.410  0.030  0.000
     occupation matrix ns (before diag.):
       0.996  0.000  0.000  0.000  0.000
       0.000  0.919  0.000 -0.000  0.022
       0.000  0.000  0.919  0.022  0.000
       0.000 -0.000  0.022  0.881 -0.000
       0.000  0.022  0.000 -0.000  0.881
     SPIN  2
     eigenvalues:
       0.997  0.997  0.997  0.997  0.997
     eigenvectors (columns):
       1.000 -0.000 -0.000  0.000  0.000
      -0.000 -0.407  0.507 -0.086 -0.755
      -0.000 -0.507 -0.407 -0.755  0.086
      -0.000 -0.593 -0.476  0.646 -0.073
      -0.000 -0.476  0.593  0.073  0.646
     occupation matrix ns (before diag.):
       0.997  0.000  0.000  0.000  0.000
       0.000  0.997  0.000 -0.000 -0.000
       0.000  0.000  0.997 -0.000  0.000
       0.000 -0.000 -0.000  0.997 -0.000
       0.000 -0.000  0.000 -0.000  0.997

     Number of occupied Hubbard levels =   19.1840

     HUBBARD ENERGY =    0.3264  (Ry)

     total cpu time spent up to now is       21.5 secs

     total energy              =    -772.65583623 Ry
     estimated scf accuracy    <       9.48304880 Ry

     total magnetization       =     0.00 Bohr mag/cell
     absolute magnetization    =     2.84 Bohr mag/cell

     iteration #  4     ecut=    49.00 Ry     beta= 0.20
     Davidson diagonalization with overlap

---- Real-time Memory Report at c_bands before calling an iterative solver
           110 MiB given to the printing process from OS
            74 MiB allocation reported by mallinfo(arena+hblkhd)
        238814 MiB available memory on the node where the printing process lives
------------------
     ethr =  5.45E-03,  avg # of iterations =  2.8

     =================== HUBBARD OCCUPATIONS ===================
     ------------------------ ATOM    1 ------------------------
     Tr[ns(  1)] (up, down, total) =   4.96033  4.77745  9.73778
     Atomic magnetic moment for atom   1 =   0.18289
     SPIN  1
     eigenvalues:
       0.991  0.991  0.991  0.993  0.993
     eigenvectors (columns):
       1.000  0.000 -0.000  0.000  0.000
      -0.000  0.397  0.504 -0.070 -0.764
      -0.000  0.504 -0.397 -0.764  0.070
      -0.000  0.603 -0.475  0.639 -0.058
      -0.000  0.475  0.603  0.058  0.639
     occupation matrix ns (before diag.):
       0.991  0.000  0.000  0.000  0.000
       0.000  0.992  0.000 -0.000 -0.001
       0.000  0.000  0.992 -0.001  0.000
       0.000 -0.000 -0.001  0.992 -0.000
       0.000 -0.001  0.000 -0.000  0.992
     SPIN  2
     eigenvalues:
       0.901  0.901  0.989  0.989  0.996
     eigenvectors (columns):
      -0.000  0.000  0.000  0.000  1.000
       0.039  0.085 -0.944 -0.316  0.000
       0.085 -0.039  0.316 -0.944  0.000
       0.905 -0.414 -0.030  0.089  0.000
       0.414  0.905  0.089  0.030  0.000
     occupation matrix ns (before diag.):
       0.996  0.000  0.000  0.000  0.000
       0.000  0.988  0.000 -0.000 -0.008
       0.000  0.000  0.988 -0.008  0.000
       0.000 -0.000 -0.008  0.902 -0.000
       0.000 -0.008  0.000 -0.000  0.902
     ------------------------ ATOM    2 ------------------------
     Tr[ns(  2)] (up, down, total) =   4.82520  4.96062  9.78582
     Atomic magnetic moment for atom   2 =  -0.13542
     SPIN  1
     eigenvalues:
       0.925  0.925  0.989  0.989  0.996
     eigenvectors (columns):
      -0.000  0.000  0.000  0.000  1.000
       0.043  0.092 -0.943 -0.318  0.000
       0.092 -0.043  0.318 -0.943  0.000
       0.902 -0.420 -0.032  0.096  0.000
       0.420  0.902  0.096  0.032  0.000
     occupation matrix ns (before diag.):
       0.996  0.000  0.000  0.000  0.000
       0.000  0.989  0.000 -0.000 -0.006
       0.000  0.000  0.989 -0.006  0.000
       0.000 -0.000 -0.006  0.926 -0.000
       0.000 -0.006  0.000 -0.000  0.926
     SPIN  2
     eigenvalues:
       0.991  0.991  0.991  0.993  0.993
     eigenvectors (columns):
       1.000  0.000 -0.000  0.000  0.000
      -0.000  0.397  0.504 -0.071 -0.764
      -0.000  0.504 -0.397 -0.764  0.071
      -0.000  0.602 -0.475  0.639 -0.059
      -0.000  0.475  0.602  0.059  0.639
     occupation matrix ns (before diag.):
       0.991  0.000  0.000  0.000  0.000
       0.000  0.992  0.000 -0.000 -0.001
       0.000  0.000  0.992 -0.001  0.000
       0.000 -0.000 -0.001  0.992 -0.000
       0.000 -0.001  0.000 -0.000  0.992

     Number of occupied Hubbard levels =   19.5236

     HUBBARD ENERGY =    0.4220  (Ry)

     total cpu time spent up to now is       22.3 secs

     total energy              =    -770.13435099 Ry
     estimated scf accuracy    <      19.31352558 Ry

     total magnetization       =    -0.00 Bohr mag/cell
     absolute magnetization    =     2.63 Bohr mag/cell

     iteration #  5     ecut=    49.00 Ry     beta= 0.20
     Davidson diagonalization with overlap

---- Real-time Memory Report at c_bands before calling an iterative solver
           111 MiB given to the printing process from OS
            74 MiB allocation reported by mallinfo(arena+hblkhd)
        238807 MiB available memory on the node where the printing process lives
------------------
     ethr =  5.45E-03,  avg # of iterations =  2.3

     =================== HUBBARD OCCUPATIONS ===================
     ------------------------ ATOM    1 ------------------------
     Tr[ns(  1)] (up, down, total) =   4.99122  4.69962  9.69084
     Atomic magnetic moment for atom   1 =   0.29160
     SPIN  1
     eigenvalues:
       0.997  0.997  0.999  0.999  0.999
     eigenvectors (columns):
       0.000  0.000  0.000 -0.000  1.000
       0.033  0.779 -0.379 -0.498  0.000
       0.779 -0.033 -0.498  0.379  0.000
      -0.625  0.027 -0.621  0.473  0.000
      -0.027 -0.625 -0.473 -0.621  0.000
     occupation matrix ns (before diag.):
       0.999  0.000  0.000  0.000  0.000
       0.000  0.998  0.000 -0.000  0.001
       0.000  0.000  0.998  0.001  0.000
       0.000 -0.000  0.001  0.998 -0.000
       0.000  0.001  0.000 -0.000  0.998
     SPIN  2
     eigenvalues:
       0.890  0.890  0.962  0.962  0.997
     eigenvectors (columns):
       0.000  0.000 -0.000 -0.000 -1.000
       0.054 -0.134  0.967  0.208 -0.000
       0.134  0.054 -0.208  0.967 -0.000
      -0.917 -0.371 -0.030  0.141 -0.000
      -0.371  0.917  0.141  0.030 -0.000
     occupation matrix ns (before diag.):
       0.997  0.000  0.000  0.000  0.000
       0.000  0.960  0.000 -0.000  0.010
       0.000  0.000  0.960  0.010  0.000
       0.000 -0.000  0.010  0.891 -0.000
       0.000  0.010  0.000 -0.000  0.891
     ------------------------ ATOM    2 ------------------------
     Tr[ns(  2)] (up, down, total) =   4.78379  4.99209  9.77587
     Atomic magnetic moment for atom   2 =  -0.20830
     SPIN  1
     eigenvalues:
       0.919  0.919  0.974  0.974  0.997
     eigenvectors (columns):
       0.000  0.000 -0.000 -0.000 -1.000
       0.029 -0.067  0.966  0.247 -0.000
       0.067  0.029 -0.247  0.966 -0.000
      -0.918 -0.390 -0.018  0.071 -0.000
      -0.390  0.918  0.071  0.018 -0.000
     occupation matrix ns (before diag.):
       0.997  0.000  0.000  0.000  0.000
       0.000  0.974  0.000 -0.000  0.004
       0.000  0.000  0.974  0.004  0.000
       0.000 -0.000  0.004  0.919 -0.000
       0.000  0.004  0.000 -0.000  0.919
     SPIN  2
     eigenvalues:
       0.998  0.998  0.999  0.999  0.999
     eigenvectors (columns):
       0.000 -0.000  0.000  0.000  1.000
       0.108 -0.740 -0.424  0.511  0.000
       0.740  0.108 -0.511 -0.424  0.000
      -0.658 -0.096 -0.575 -0.477  0.000
      -0.096  0.658 -0.477  0.575  0.000
     occupation matrix ns (before diag.):
       0.999  0.000  0.000  0.000  0.000
       0.000  0.998  0.000 -0.000  0.000
       0.000  0.000  0.998  0.000  0.000
       0.000 -0.000  0.000  0.998 -0.000
       0.000  0.000  0.000 -0.000  0.998

     Number of occupied Hubbard levels =   19.4667

     HUBBARD ENERGY =    0.3074  (Ry)

     total cpu time spent up to now is       23.0 secs

     total energy              =    -769.34121739 Ry
     estimated scf accuracy    <       6.11635362 Ry

     total magnetization       =     0.00 Bohr mag/cell
     absolute magnetization    =     2.63 Bohr mag/cell

     iteration #  6     ecut=    49.00 Ry     beta= 0.20
     Davidson diagonalization with overlap

---- Real-time Memory Report at c_bands before calling an iterative solver
           112 MiB given to the printing process from OS
            74 MiB allocation reported by mallinfo(arena+hblkhd)
        238803 MiB available memory on the node where the printing process lives
------------------
     ethr =  5.45E-03,  avg # of iterations =  5.3

     =================== HUBBARD OCCUPATIONS ===================
     ------------------------ ATOM    1 ------------------------
     Tr[ns(  1)] (up, down, total) =   4.93259  3.39853  8.33113
     Atomic magnetic moment for atom   1 =   1.53406
     SPIN  1
     eigenvalues:
       0.985  0.985  0.985  0.988  0.988
     eigenvectors (columns):
      -1.000 -0.000 -0.000 -0.000  0.000
       0.000 -0.278  0.431 -0.593 -0.621
       0.000 -0.431 -0.278  0.621 -0.593
       0.000 -0.722 -0.465 -0.371  0.354
       0.000 -0.465  0.722  0.354  0.371
     occupation matrix ns (before diag.):
       0.985  0.000  0.000  0.000  0.000
       0.000  0.988  0.000 -0.000 -0.001
       0.000  0.000  0.988 -0.001  0.000
       0.000 -0.000 -0.001  0.986 -0.000
       0.000 -0.001  0.000 -0.000  0.986
     SPIN  2
     eigenvalues:
       0.321  0.321  0.893  0.893  0.970
     eigenvectors (columns):
       0.000 -0.000 -0.000 -0.000  1.000
       0.021 -0.777  0.379 -0.502  0.000
       0.777  0.021  0.502  0.379  0.000
      -0.629 -0.017  0.621  0.468  0.000
      -0.017  0.629  0.468 -0.621  0.000
     occupation matrix ns (before diag.):
       0.970  0.000  0.000  0.000  0.000
       0.000  0.547  0.000 -0.000  0.280
       0.000  0.000  0.547  0.280  0.000
       0.000 -0.000  0.280  0.667 -0.000
       0.000  0.280  0.000 -0.000  0.667
     ------------------------ ATOM    2 ------------------------
     Tr[ns(  2)] (up, down, total) =   3.44731  4.94050  8.38781
     Atomic magnetic moment for atom   2 =  -1.49319
     SPIN  1
     eigenvalues:
       0.331  0.331  0.906  0.906  0.974
     eigenvectors (columns):
      -0.000 -0.000 -0.000  0.000  1.000
       0.073 -0.801  0.344  0.484  0.000
      -0.801 -0.073  0.484 -0.344  0.000
       0.592  0.054  0.656 -0.466  0.000
      -0.054  0.592  0.466  0.656  0.000
     occupation matrix ns (before diag.):
       0.974  0.000  0.000  0.000  0.000
       0.000  0.534  0.000 -0.000  0.274
       0.000  0.000  0.534  0.274  0.000
       0.000 -0.000  0.274  0.703 -0.000
       0.000  0.274  0.000 -0.000  0.703
     SPIN  2
     eigenvalues:
       0.987  0.987  0.987  0.989  0.989
     eigenvectors (columns):
       1.000 -0.000 -0.000 -0.000  0.000
      -0.000 -0.227  0.379 -0.758  0.479
      -0.000 -0.379 -0.227  0.479  0.758
      -0.000 -0.770 -0.461 -0.236 -0.374
      -0.000 -0.461  0.770  0.374 -0.236
     occupation matrix ns (before diag.):
       0.987  0.000  0.000  0.000  0.000
       0.000  0.989  0.000 -0.000 -0.001
       0.000  0.000  0.989 -0.001  0.000
       0.000 -0.000 -0.001  0.988 -0.000
       0.000 -0.001  0.000 -0.000  0.988

     Number of occupied Hubbard levels =   16.7189

     HUBBARD ENERGY =    0.3016  (Ry)

     total cpu time spent up to now is       23.9 secs

     total energy              =    -770.41931967 Ry
     estimated scf accuracy    <       0.65316829 Ry

     total magnetization       =    -0.00 Bohr mag/cell
     absolute magnetization    =     4.07 Bohr mag/cell

     iteration #  7     ecut=    49.00 Ry     beta= 0.20
     Davidson diagonalization with overlap

---- Real-time Memory Report at c_bands before calling an iterative solver
           112 MiB given to the printing process from OS
            74 MiB allocation reported by mallinfo(arena+hblkhd)
        238799 MiB available memory on the node where the printing process lives
------------------
     ethr =  1.02E-03,  avg # of iterations =  2.1

     =================== HUBBARD OCCUPATIONS ===================
     ------------------------ ATOM    1 ------------------------
     Tr[ns(  1)] (up, down, total) =   4.92964  3.41470  8.34434
     Atomic magnetic moment for atom   1 =   1.51493
     SPIN  1
     eigenvalues:
       0.984  0.985  0.985  0.988  0.988
     eigenvectors (columns):
      -1.000 -0.000 -0.000 -0.000  0.000
       0.000 -0.284  0.437 -0.556 -0.648
       0.000 -0.437 -0.284  0.648 -0.556
       0.000 -0.715 -0.466 -0.396  0.339
       0.000 -0.466  0.715  0.339  0.396
     occupation matrix ns (before diag.):
       0.984  0.000  0.000  0.000  0.000
       0.000  0.987  0.000 -0.000 -0.002
       0.000  0.000  0.987 -0.002  0.000
       0.000 -0.000 -0.002  0.986 -0.000
       0.000 -0.002  0.000 -0.000  0.986
     SPIN  2
     eigenvalues:
       0.294  0.294  0.928  0.928  0.971
     eigenvectors (columns):
       0.000 -0.000 -0.000  0.000  1.000
      -0.005 -0.798  0.355  0.487  0.000
       0.798 -0.005  0.487 -0.355  0.000
      -0.602  0.003  0.645 -0.470  0.000
       0.003  0.602  0.470  0.645  0.000
     occupation matrix ns (before diag.):
       0.971  0.000  0.000  0.000  0.000
       0.000  0.524  0.000 -0.000  0.305
       0.000  0.000  0.524  0.305  0.000
       0.000 -0.000  0.305  0.698 -0.000
       0.000  0.305  0.000 -0.000  0.698
     ------------------------ ATOM    2 ------------------------
     Tr[ns(  2)] (up, down, total) =   3.44777  4.93540  8.38316
     Atomic magnetic moment for atom   2 =  -1.48763
     SPIN  1
     eigenvalues:
       0.331  0.331  0.906  0.906  0.974
     eigenvectors (columns):
      -0.000 -0.000 -0.000  0.000  1.000
       0.070 -0.801  0.344  0.485  0.000
      -0.801 -0.070  0.485 -0.344  0.000
       0.592  0.052  0.656 -0.466  0.000
      -0.052  0.592  0.466  0.656  0.000
     occupation matrix ns (before diag.):
       0.974  0.000  0.000  0.000  0.000
       0.000  0.534  0.000 -0.000  0.275
       0.000  0.000  0.534  0.275  0.000
       0.000 -0.000  0.275  0.703 -0.000
       0.000  0.275  0.000 -0.000  0.703
     SPIN  2
     eigenvalues:
       0.986  0.986  0.986  0.989  0.989
     eigenvectors (columns):
       1.000 -0.000 -0.000 -0.000 -0.000
      -0.000 -0.243  0.397 -0.721  0.513
      -0.000 -0.397 -0.243  0.513  0.721
      -0.000 -0.754 -0.462 -0.270 -0.380
      -0.000 -0.462  0.754  0.380 -0.270
     occupation matrix ns (before diag.):
       0.986  0.000  0.000  0.000  0.000
       0.000  0.988  0.000 -0.000 -0.001
       0.000  0.000  0.988 -0.001  0.000
       0.000 -0.000 -0.001  0.987 -0.000
       0.000 -0.001  0.000 -0.000  0.987

     Number of occupied Hubbard levels =   16.7275

     HUBBARD ENERGY =    0.3130  (Ry)

     total cpu time spent up to now is       24.6 secs

     total energy              =    -770.36535831 Ry
     estimated scf accuracy    <       0.66514718 Ry

     total magnetization       =     0.00 Bohr mag/cell
     absolute magnetization    =     4.07 Bohr mag/cell

     iteration #  8     ecut=    49.00 Ry     beta= 0.20
     Davidson diagonalization with overlap

---- Real-time Memory Report at c_bands before calling an iterative solver
           113 MiB given to the printing process from OS
            74 MiB allocation reported by mallinfo(arena+hblkhd)
        238788 MiB available memory on the node where the printing process lives
------------------
     ethr =  1.02E-03,  avg # of iterations =  1.8

     =================== HUBBARD OCCUPATIONS ===================
     ------------------------ ATOM    1 ------------------------
     Tr[ns(  1)] (up, down, total) =   4.95166  3.52538  8.47704
     Atomic magnetic moment for atom   1 =   1.42629
     SPIN  1
     eigenvalues:
       0.989  0.989  0.989  0.992  0.992
     eigenvectors (columns):
       1.000  0.000 -0.000  0.000 -0.000
      -0.000  0.262  0.416  0.664  0.563
      -0.000  0.416 -0.262 -0.563  0.664
      -0.000  0.737 -0.464  0.318 -0.375
      -0.000  0.464  0.737 -0.375 -0.318
     occupation matrix ns (before diag.):
       0.989  0.000  0.000  0.000  0.000
       0.000  0.991  0.000 -0.000 -0.001
       0.000  0.000  0.991 -0.001  0.000
       0.000 -0.000 -0.001  0.990 -0.000
       0.000 -0.001  0.000 -0.000  0.990
     SPIN  2
     eigenvalues:
       0.296  0.296  0.977  0.977  0.980
     eigenvectors (columns):
      -0.000  0.000 -0.000  0.000  1.000
      -0.026  0.811  0.340  0.475  0.000
      -0.811 -0.026  0.475 -0.340  0.000
       0.584  0.019  0.660 -0.472  0.000
       0.019 -0.584  0.472  0.660  0.000
     occupation matrix ns (before diag.):
       0.980  0.000  0.000  0.000  0.000
       0.000  0.528  0.000 -0.000  0.323
       0.000  0.000  0.528  0.323  0.000
       0.000 -0.000  0.323  0.744 -0.000
       0.000  0.323  0.000 -0.000  0.744
     ------------------------ ATOM    2 ------------------------
     Tr[ns(  2)] (up, down, total) =   3.49686  4.95111  8.44797
     Atomic magnetic moment for atom   2 =  -1.45425
     SPIN  1
     eigenvalues:
       0.343  0.343  0.915  0.915  0.981
     eigenvectors (columns):
       0.000  0.000 -0.000  0.000  1.000
      -0.062  0.800  0.347  0.486  0.000
       0.800  0.062  0.486 -0.347  0.000
      -0.596 -0.046  0.653 -0.466  0.000
       0.046 -0.596  0.466  0.653  0.000
     occupation matrix ns (before diag.):
       0.981  0.000  0.000  0.000  0.000
       0.000  0.547  0.000 -0.000  0.274
       0.000  0.000  0.547  0.274  0.000
       0.000 -0.000  0.274  0.711 -0.000
       0.000  0.274  0.000 -0.000  0.711
     SPIN  2
     eigenvalues:
       0.989  0.989  0.989  0.991  0.991
     eigenvectors (columns):
       1.000 -0.000 -0.000 -0.000  0.000
      -0.000 -0.231  0.384 -0.750  0.487
      -0.000 -0.384 -0.231  0.487  0.750
      -0.000 -0.766 -0.462 -0.244 -0.376
      -0.000 -0.462  0.766  0.376 -0.244
     occupation matrix ns (before diag.):
       0.989  0.000  0.000  0.000  0.000
       0.000  0.991  0.000 -0.000 -0.001
       0.000  0.000  0.991 -0.001  0.000
       0.000 -0.000 -0.001  0.990 -0.000
       0.000 -0.001  0.000 -0.000  0.990

     Number of occupied Hubbard levels =   16.9250

     HUBBARD ENERGY =    0.2757  (Ry)

     total cpu time spent up to now is       25.2 secs

     total energy              =    -770.43858676 Ry
     estimated scf accuracy    <       0.25186102 Ry

     total magnetization       =    -0.00 Bohr mag/cell
     absolute magnetization    =     4.08 Bohr mag/cell

     iteration #  9     ecut=    49.00 Ry     beta= 0.20
     Davidson diagonalization with overlap

---- Real-time Memory Report at c_bands before calling an iterative solver
           113 MiB given to the printing process from OS
            74 MiB allocation reported by mallinfo(arena+hblkhd)
        238783 MiB available memory on the node where the printing process lives
------------------
     ethr =  3.94E-04,  avg # of iterations =  1.2

     =================== HUBBARD OCCUPATIONS ===================
     ------------------------ ATOM    1 ------------------------
     Tr[ns(  1)] (up, down, total) =   4.94960  3.50609  8.45568
     Atomic magnetic moment for atom   1 =   1.44351
     SPIN  1
     eigenvalues:
       0.988  0.988  0.989  0.992  0.992
     eigenvectors (columns):
      -0.000  0.000 -1.000  0.000  0.000
       0.251  0.405 -0.000  0.700 -0.531
       0.405 -0.251 -0.000 -0.531 -0.700
       0.747 -0.463 -0.000  0.288  0.380
       0.463  0.747 -0.000 -0.380  0.288
     occupation matrix ns (before diag.):
       0.989  0.000  0.000  0.000  0.000
       0.000  0.991  0.000 -0.000 -0.001
       0.000  0.000  0.991 -0.001  0.000
       0.000 -0.000 -0.001  0.989 -0.000
       0.000 -0.001  0.000 -0.000  0.989
     SPIN  2
     eigenvalues:
       0.285  0.285  0.978  0.978  0.980
     eigenvectors (columns):
       0.000 -0.000 -0.000  0.000  1.000
       0.010 -0.813  0.338  0.475  0.000
       0.813  0.010  0.475 -0.338  0.000
      -0.583 -0.007  0.662 -0.472  0.000
      -0.007  0.583  0.472  0.662  0.000
     occupation matrix ns (before diag.):
       0.980  0.000  0.000  0.000  0.000
       0.000  0.520  0.000 -0.000  0.328
       0.000  0.000  0.520  0.328  0.000
       0.000 -0.000  0.328  0.743 -0.000
       0.000  0.328  0.000 -0.000  0.743
     ------------------------ ATOM    2 ------------------------
     Tr[ns(  2)] (up, down, total) =   3.50280  4.95253  8.45533
     Atomic magnetic moment for atom   2 =  -1.44973
     SPIN  1
     eigenvalues:
       0.344  0.344  0.917  0.917  0.982
     eigenvectors (columns):
      -0.000 -0.000 -0.000  0.000  1.000
       0.055 -0.798  0.349  0.488  0.000
      -0.798 -0.055  0.488 -0.349  0.000
       0.598  0.041  0.651 -0.466  0.000
      -0.041  0.598  0.466  0.651  0.000
     occupation matrix ns (before diag.):
       0.982  0.000  0.000  0.000  0.000
       0.000  0.550  0.000 -0.000  0.275
       0.000  0.000  0.550  0.275  0.000
       0.000 -0.000  0.275  0.711 -0.000
       0.000  0.275  0.000 -0.000  0.711
     SPIN  2
     eigenvalues:
       0.989  0.990  0.990  0.992  0.992
     eigenvectors (columns):
       1.000  0.000 -0.000  0.000 -0.000
      -0.000  0.243  0.397  0.722  0.512
      -0.000  0.397 -0.243 -0.512  0.722
      -0.000  0.755 -0.462  0.269 -0.380
      -0.000  0.462  0.755 -0.380 -0.269
     occupation matrix ns (before diag.):
       0.989  0.000  0.000  0.000  0.000
       0.000  0.991  0.000 -0.000 -0.001
       0.000  0.000  0.991 -0.001  0.000
       0.000 -0.000 -0.001  0.990 -0.000
       0.000 -0.001  0.000 -0.000  0.990

     Number of occupied Hubbard levels =   16.9110

     HUBBARD ENERGY =    0.2352  (Ry)

     total cpu time spent up to now is       25.9 secs

     total energy              =    -770.43088215 Ry
     estimated scf accuracy    <       0.19527773 Ry

     total magnetization       =    -0.00 Bohr mag/cell
     absolute magnetization    =     4.07 Bohr mag/cell

     iteration # 10     ecut=    49.00 Ry     beta= 0.20
     Davidson diagonalization with overlap

---- Real-time Memory Report at c_bands before calling an iterative solver
           113 MiB given to the printing process from OS
            74 MiB allocation reported by mallinfo(arena+hblkhd)
        238782 MiB available memory on the node where the printing process lives
------------------
     ethr =  3.05E-04,  avg # of iterations =  2.0

     =================== HUBBARD OCCUPATIONS ===================
     ------------------------ ATOM    1 ------------------------
     Tr[ns(  1)] (up, down, total) =   4.95462  3.51382  8.46844
     Atomic magnetic moment for atom   1 =   1.44080
     SPIN  1
     eigenvalues:
       0.989  0.989  0.990  0.993  0.993
     eigenvectors (columns):
      -0.000  0.000 -1.000  0.000 -0.000
       0.241  0.395 -0.000  0.727 -0.507
       0.395 -0.241 -0.000 -0.507 -0.727
       0.757 -0.462 -0.000  0.265  0.380
       0.462  0.757 -0.000 -0.380  0.265
     occupation matrix ns (before diag.):
       0.990  0.000  0.000  0.000  0.000
       0.000  0.992  0.000 -0.000 -0.002
       0.000  0.000  0.992 -0.002  0.000
       0.000 -0.000 -0.002  0.990 -0.000
       0.000 -0.002  0.000 -0.000  0.990
     SPIN  2
     eigenvalues:
       0.283  0.283  0.982  0.982  0.984
     eigenvectors (columns):
       0.000 -0.000 -0.000  0.000  1.000
      -0.011 -0.814  0.337  0.474  0.000
       0.814 -0.011  0.474 -0.337  0.000
      -0.581  0.008  0.663 -0.471  0.000
       0.008  0.581  0.471  0.663  0.000
     occupation matrix ns (before diag.):
       0.984  0.000  0.000  0.000  0.000
       0.000  0.519  0.000 -0.000  0.331
       0.000  0.000  0.519  0.331  0.000
       0.000 -0.000  0.331  0.746 -0.000
       0.000  0.331  0.000 -0.000  0.746
     ------------------------ ATOM    2 ------------------------
     Tr[ns(  2)] (up, down, total) =   3.56350  4.95686  8.52036
     Atomic magnetic moment for atom   2 =  -1.39336
     SPIN  1
     eigenvalues:
       0.308  0.308  0.982  0.982  0.984
     eigenvectors (columns):
       0.000 -0.000 -0.000  0.000  1.000
      -0.036 -0.814  0.336  0.473  0.000
       0.814 -0.036  0.473 -0.336  0.000
      -0.580  0.026  0.664 -0.471  0.000
       0.026  0.580  0.471  0.664  0.000
     occupation matrix ns (before diag.):
       0.984  0.000  0.000  0.000  0.000
       0.000  0.535  0.000 -0.000  0.318
       0.000  0.000  0.535  0.318  0.000
       0.000 -0.000  0.318  0.755 -0.000
       0.000  0.318  0.000 -0.000  0.755
     SPIN  2
     eigenvalues:
       0.990  0.990  0.990  0.993  0.993
     eigenvectors (columns):
       0.000  0.000  1.000  0.000 -0.000
      -0.250  0.404  0.000  0.702  0.530
      -0.404 -0.250  0.000 -0.530  0.702
      -0.748 -0.463  0.000  0.287 -0.380
      -0.463  0.748  0.000 -0.380 -0.287
     occupation matrix ns (before diag.):
       0.990  0.000  0.000  0.000  0.000
       0.000  0.992  0.000 -0.000 -0.001
       0.000  0.000  0.992 -0.001  0.000
       0.000 -0.000 -0.001  0.991 -0.000
       0.000 -0.001  0.000 -0.000  0.991

     Number of occupied Hubbard levels =   16.9888

     HUBBARD ENERGY =    0.2459  (Ry)

     total cpu time spent up to now is       26.6 secs

     total energy              =    -770.47215319 Ry
     estimated scf accuracy    <       0.10207696 Ry

     total magnetization       =     0.00 Bohr mag/cell
     absolute magnetization    =     4.05 Bohr mag/cell

     iteration # 11     ecut=    49.00 Ry     beta= 0.20
     Davidson diagonalization with overlap

---- Real-time Memory Report at c_bands before calling an iterative solver
           113 MiB given to the printing process from OS
            74 MiB allocation reported by mallinfo(arena+hblkhd)
        238773 MiB available memory on the node where the printing process lives
------------------
     ethr =  1.59E-04,  avg # of iterations =  1.2

     =================== HUBBARD OCCUPATIONS ===================
     ------------------------ ATOM    1 ------------------------
     Tr[ns(  1)] (up, down, total) =   4.95494  3.51120  8.46614
     Atomic magnetic moment for atom   1 =   1.44373
     SPIN  1
     eigenvalues:
       0.989  0.989  0.990  0.993  0.993
     eigenvectors (columns):
      -0.000  0.000 -1.000  0.000 -0.000
       0.239  0.392 -0.000  0.734 -0.501
       0.392 -0.239 -0.000 -0.501 -0.734
       0.759 -0.462 -0.000  0.259  0.379
       0.462  0.759 -0.000 -0.379  0.259
     occupation matrix ns (before diag.):
       0.990  0.000  0.000  0.000  0.000
       0.000  0.992  0.000 -0.000 -0.001
       0.000  0.000  0.992 -0.001  0.000
       0.000 -0.000 -0.001  0.990 -0.000
       0.000 -0.001  0.000 -0.000  0.990
     SPIN  2
     eigenvalues:
       0.281  0.281  0.982  0.982  0.984
     eigenvectors (columns):
       0.000 -0.000 -0.000  0.000  1.000
      -0.024 -0.814  0.336  0.473  0.000
       0.814 -0.024  0.473 -0.336  0.000
      -0.580  0.017  0.664 -0.471  0.000
       0.017  0.580  0.471  0.664  0.000
     occupation matrix ns (before diag.):
       0.984  0.000  0.000  0.000  0.000
       0.000  0.518  0.000 -0.000  0.331
       0.000  0.000  0.518  0.331  0.000
       0.000 -0.000  0.331  0.746 -0.000
       0.000  0.331  0.000 -0.000  0.746
     ------------------------ ATOM    2 ------------------------
     Tr[ns(  2)] (up, down, total) =   3.57398  4.95809  8.53207
     Atomic magnetic moment for atom   2 =  -1.38411
     SPIN  1
     eigenvalues:
       0.313  0.313  0.982  0.982  0.984
     eigenvectors (columns):
      -0.000  0.000  0.000  0.000 -1.000
       0.038  0.813 -0.337  0.474 -0.000
      -0.813  0.038 -0.474 -0.337 -0.000
       0.581 -0.027 -0.663 -0.471 -0.000
      -0.027 -0.581 -0.471  0.663 -0.000
     occupation matrix ns (before diag.):
       0.984  0.000  0.000  0.000  0.000
       0.000  0.539  0.000 -0.000  0.317
       0.000  0.000  0.539  0.317  0.000
       0.000 -0.000  0.317  0.756 -0.000
       0.000  0.317  0.000 -0.000  0.756
     SPIN  2
     eigenvalues:
       0.991  0.991  0.991  0.993  0.993
     eigenvectors (columns):
      -0.000 -0.000  1.000  0.000 -0.000
       0.249 -0.403  0.000  0.706  0.526
       0.403  0.249  0.000 -0.526  0.706
       0.749  0.463  0.000  0.283 -0.380
       0.463 -0.749  0.000 -0.380 -0.283
     occupation matrix ns (before diag.):
       0.991  0.000  0.000  0.000  0.000
       0.000  0.992  0.000 -0.000 -0.001
       0.000  0.000  0.992 -0.001  0.000
       0.000 -0.000 -0.001  0.991 -0.000
       0.000 -0.001  0.000 -0.000  0.991

     Number of occupied Hubbard levels =   16.9982

     HUBBARD ENERGY =    0.2644  (Ry)

     total cpu time spent up to now is       27.2 secs

     total energy              =    -770.45348639 Ry
     estimated scf accuracy    <       0.10241438 Ry

     total magnetization       =    -0.00 Bohr mag/cell
     absolute magnetization    =     4.06 Bohr mag/cell

     iteration # 12     ecut=    49.00 Ry     beta= 0.20
     Davidson diagonalization with overlap

---- Real-time Memory Report at c_bands before calling an iterative solver
           113 MiB given to the printing process from OS
            74 MiB allocation reported by mallinfo(arena+hblkhd)
        238766 MiB available memory on the node where the printing process lives
------------------
     ethr =  1.59E-04,  avg # of iterations =  3.8

     =================== HUBBARD OCCUPATIONS ===================
     ------------------------ ATOM    1 ------------------------
     Tr[ns(  1)] (up, down, total) =   4.96486  3.58327  8.54812
     Atomic magnetic moment for atom   1 =   1.38159
     SPIN  1
     eigenvalues:
       0.992  0.992  0.993  0.994  0.994
     eigenvectors (columns):
      -0.000  0.000 -1.000  0.000 -0.000
       0.228  0.380 -0.000  0.757 -0.480
       0.380 -0.228 -0.000 -0.480 -0.757
       0.769 -0.461 -0.000  0.237  0.375
       0.461  0.769 -0.000 -0.375  0.237
     occupation matrix ns (before diag.):
       0.993  0.000  0.000  0.000  0.000
       0.000  0.994  0.000 -0.000 -0.001
       0.000  0.000  0.994 -0.001  0.000
       0.000 -0.000 -0.001  0.992 -0.000
       0.000 -0.001  0.000 -0.000  0.992
     SPIN  2
     eigenvalues:
       0.312  0.312  0.986  0.986  0.987
     eigenvectors (columns):
      -0.000  0.000 -0.000  0.000 -1.000
       0.060  0.811  0.337  0.474 -0.000
      -0.811  0.060  0.474 -0.337 -0.000
       0.580 -0.043  0.663 -0.471 -0.000
      -0.043 -0.580  0.471  0.663 -0.000
     occupation matrix ns (before diag.):
       0.987  0.000  0.000  0.000  0.000
       0.000  0.540  0.000 -0.000  0.319
       0.000  0.000  0.540  0.319  0.000
       0.000 -0.000  0.319  0.758 -0.000
       0.000  0.319  0.000 -0.000  0.758
     ------------------------ ATOM    2 ------------------------
     Tr[ns(  2)] (up, down, total) =   3.68237  4.96470  8.64706
     Atomic magnetic moment for atom   2 =  -1.28233
     SPIN  1
     eigenvalues:
       0.362  0.362  0.985  0.985  0.987
     eigenvectors (columns):
       0.000 -0.000 -0.000  0.000  1.000
      -0.006 -0.810  0.341  0.477  0.000
       0.810 -0.006  0.477 -0.341  0.000
      -0.586  0.004  0.659 -0.471  0.000
       0.004  0.586  0.471  0.659  0.000
     occupation matrix ns (before diag.):
       0.987  0.000  0.000  0.000  0.000
       0.000  0.577  0.000 -0.000  0.296
       0.000  0.000  0.577  0.296  0.000
       0.000 -0.000  0.296  0.771 -0.000
       0.000  0.296  0.000 -0.000  0.771
     SPIN  2
     eigenvalues:
       0.992  0.992  0.992  0.994  0.994
     eigenvectors (columns):
      -0.000  0.000 -1.000  0.000 -0.000
       0.231  0.384 -0.000  0.750 -0.486
       0.384 -0.231 -0.000 -0.486 -0.750
       0.766 -0.461 -0.000  0.244  0.376
       0.461  0.766 -0.000 -0.376  0.244
     occupation matrix ns (before diag.):
       0.992  0.000  0.000  0.000  0.000
       0.000  0.994  0.000 -0.000 -0.001
       0.000  0.000  0.994 -0.001  0.000
       0.000 -0.000 -0.001  0.993 -0.000
       0.000 -0.001  0.000 -0.000  0.993

     Number of occupied Hubbard levels =   17.1952

     HUBBARD ENERGY =    0.2670  (Ry)

     total cpu time spent up to now is       27.9 secs

     total energy              =    -770.46416455 Ry
     estimated scf accuracy    <       0.01976026 Ry

     total magnetization       =    -0.00 Bohr mag/cell
     absolute magnetization    =     4.05 Bohr mag/cell

     iteration # 13     ecut=    49.00 Ry     beta= 0.20
     Davidson diagonalization with overlap

---- Real-time Memory Report at c_bands before calling an iterative solver
           113 MiB given to the printing process from OS
            74 MiB allocation reported by mallinfo(arena+hblkhd)
        238766 MiB available memory on the node where the printing process lives
------------------
     ethr =  3.09E-05,  avg # of iterations =  5.1

     =================== HUBBARD OCCUPATIONS ===================
     ------------------------ ATOM    1 ------------------------
     Tr[ns(  1)] (up, down, total) =   4.96338  3.61677  8.58015
     Atomic magnetic moment for atom   1 =   1.34661
     SPIN  1
     eigenvalues:
       0.992  0.992  0.992  0.994  0.994
     eigenvectors (columns):
      -0.000  0.000 -1.000  0.000  0.000
       0.248  0.403 -0.000  0.708 -0.525
       0.403 -0.248 -0.000 -0.525 -0.708
       0.750 -0.463 -0.000  0.282  0.380
       0.463  0.750 -0.000 -0.380  0.282
     occupation matrix ns (before diag.):
       0.992  0.000  0.000  0.000  0.000
       0.000  0.994  0.000 -0.000 -0.001
       0.000  0.000  0.994 -0.001  0.000
       0.000 -0.000 -0.001  0.992 -0.000
       0.000 -0.001  0.000 -0.000  0.992
     SPIN  2
     eigenvalues:
       0.329  0.329  0.986  0.986  0.987
     eigenvectors (columns):
      -0.000  0.000 -0.000  0.000 -1.000
       0.043  0.808  0.342  0.477 -0.000
      -0.808  0.043  0.477 -0.342 -0.000
       0.586 -0.031  0.658 -0.471 -0.000
      -0.031 -0.586  0.471  0.658 -0.000
     occupation matrix ns (before diag.):
       0.987  0.000  0.000  0.000  0.000
       0.000  0.556  0.000 -0.000  0.312
       0.000  0.000  0.556  0.312  0.000
       0.000 -0.000  0.312  0.759 -0.000
       0.000  0.312  0.000 -0.000  0.759
     ------------------------ ATOM    2 ------------------------
     Tr[ns(  2)] (up, down, total) =   3.58846  4.95825  8.54671
     Atomic magnetic moment for atom   2 =  -1.36979
     SPIN  1
     eigenvalues:
       0.318  0.318  0.984  0.984  0.985
     eigenvectors (columns):
      -0.000  0.000 -0.000  0.000 -1.000
       0.054  0.810  0.340  0.476 -0.000
      -0.810  0.054  0.476 -0.340 -0.000
       0.583 -0.039  0.660 -0.471 -0.000
      -0.039 -0.583  0.471  0.660 -0.000
     occupation matrix ns (before diag.):
       0.985  0.000  0.000  0.000  0.000
       0.000  0.545  0.000 -0.000  0.316
       0.000  0.000  0.545  0.316  0.000
       0.000 -0.000  0.316  0.756 -0.000
       0.000  0.316  0.000 -0.000  0.756
     SPIN  2
     eigenvalues:
       0.990  0.990  0.991  0.993  0.993
     eigenvectors (columns):
      -0.000  0.000 -1.000  0.000 -0.000
       0.239  0.392 -0.000  0.733 -0.501
       0.392 -0.239 -0.000 -0.501 -0.733
       0.759 -0.462 -0.000  0.259  0.379
       0.462  0.759 -0.000 -0.379  0.259
     occupation matrix ns (before diag.):
       0.991  0.000  0.000  0.000  0.000
       0.000  0.993  0.000 -0.000 -0.001
       0.000  0.000  0.993 -0.001  0.000
       0.000 -0.000 -0.001  0.991 -0.000
       0.000 -0.001  0.000 -0.000  0.991

     Number of occupied Hubbard levels =   17.1269

     HUBBARD ENERGY =    0.2644  (Ry)

     total cpu time spent up to now is       28.7 secs

     total energy              =    -770.46567172 Ry
     estimated scf accuracy    <       0.04825166 Ry

     total magnetization       =     0.00 Bohr mag/cell
     absolute magnetization    =     4.05 Bohr mag/cell

     iteration # 14     ecut=    49.00 Ry     beta= 0.20
     Davidson diagonalization with overlap

---- Real-time Memory Report at c_bands before calling an iterative solver
           113 MiB given to the printing process from OS
            74 MiB allocation reported by mallinfo(arena+hblkhd)
        238765 MiB available memory on the node where the printing process lives
------------------
     ethr =  3.09E-05,  avg # of iterations =  4.0

     =================== HUBBARD OCCUPATIONS ===================
     ------------------------ ATOM    1 ------------------------
     Tr[ns(  1)] (up, down, total) =   4.96768  3.70955  8.67724
     Atomic magnetic moment for atom   1 =   1.25813
     SPIN  1
     eigenvalues:
       0.993  0.993  0.993  0.995  0.995
     eigenvectors (columns):
      -0.000  0.000 -1.000  0.000  0.000
       0.246  0.400 -0.000  0.715 -0.518
       0.400 -0.246 -0.000 -0.518 -0.715
       0.752 -0.462 -0.000  0.276  0.381
       0.462  0.752 -0.000 -0.381  0.276
     occupation matrix ns (before diag.):
       0.993  0.000  0.000  0.000  0.000
       0.000  0.994  0.000 -0.000 -0.001
       0.000  0.000  0.994 -0.001  0.000
       0.000 -0.000 -0.001  0.993 -0.000
       0.000 -0.001  0.000 -0.000  0.993
     SPIN  2
     eigenvalues:
       0.373  0.373  0.987  0.987  0.988
     eigenvectors (columns):
      -0.000  0.000 -0.000  0.000 -1.000
       0.047  0.807  0.343  0.479 -0.000
      -0.807  0.047  0.479 -0.343 -0.000
       0.588 -0.034  0.657 -0.471 -0.000
      -0.034 -0.588  0.471  0.657 -0.000
     occupation matrix ns (before diag.):
       0.988  0.000  0.000  0.000  0.000
       0.000  0.587  0.000 -0.000  0.292
       0.000  0.000  0.587  0.292  0.000
       0.000 -0.000  0.292  0.774 -0.000
       0.000  0.292  0.000 -0.000  0.774
     ------------------------ ATOM    2 ------------------------
     Tr[ns(  2)] (up, down, total) =   3.59434  4.96086  8.55521
     Atomic magnetic moment for atom   2 =  -1.36652
     SPIN  1
     eigenvalues:
       0.319  0.319  0.985  0.985  0.986
     eigenvectors (columns):
      -0.000  0.000 -0.000  0.000 -1.000
       0.059  0.810  0.339  0.476 -0.000
      -0.810  0.059  0.476 -0.339 -0.000
       0.583 -0.042  0.661 -0.471 -0.000
      -0.042 -0.583  0.471  0.661 -0.000
     occupation matrix ns (before diag.):
       0.986  0.000  0.000  0.000  0.000
       0.000  0.546  0.000 -0.000  0.316
       0.000  0.000  0.546  0.316  0.000
       0.000 -0.000  0.316  0.758 -0.000
       0.000  0.316  0.000 -0.000  0.758
     SPIN  2
     eigenvalues:
       0.991  0.991  0.992  0.994  0.994
     eigenvectors (columns):
      -0.000  0.000 -1.000  0.000 -0.000
       0.227  0.380 -0.000  0.758 -0.479
       0.380 -0.227 -0.000 -0.479 -0.758
       0.769 -0.461 -0.000  0.236  0.374
       0.461  0.769 -0.000 -0.374  0.236
     occupation matrix ns (before diag.):
       0.992  0.000  0.000  0.000  0.000
       0.000  0.993  0.000 -0.000 -0.001
       0.000  0.000  0.993 -0.001  0.000
       0.000 -0.000 -0.001  0.992 -0.000
       0.000 -0.001  0.000 -0.000  0.992

     Number of occupied Hubbard levels =   17.2324

     HUBBARD ENERGY =    0.2597  (Ry)

     total cpu time spent up to now is       29.5 secs

     total energy              =    -770.45661785 Ry
     estimated scf accuracy    <       0.02613618 Ry

     total magnetization       =     0.00 Bohr mag/cell
     absolute magnetization    =     4.04 Bohr mag/cell

     iteration # 15     ecut=    49.00 Ry     beta= 0.20
     Davidson diagonalization with overlap

---- Real-time Memory Report at c_bands before calling an iterative solver
           113 MiB given to the printing process from OS
            74 MiB allocation reported by mallinfo(arena+hblkhd)
        238764 MiB available memory on the node where the printing process lives
------------------
     ethr =  3.09E-05,  avg # of iterations =  6.8

     =================== HUBBARD OCCUPATIONS ===================
     ------------------------ ATOM    1 ------------------------
     Tr[ns(  1)] (up, down, total) =   4.96640  3.66245  8.62885
     Atomic magnetic moment for atom   1 =   1.30395
     SPIN  1
     eigenvalues:
       0.992  0.992  0.993  0.994  0.994
     eigenvectors (columns):
      -0.000  0.000 -1.000 -0.000  0.000
       0.193  0.338 -0.000 -0.815  0.430
       0.338 -0.193 -0.000  0.430  0.815
       0.799 -0.458 -0.000 -0.182 -0.344
       0.458  0.799 -0.000  0.344 -0.182
     occupation matrix ns (before diag.):
       0.993  0.000  0.000  0.000  0.000
       0.000  0.994  0.000 -0.000 -0.001
       0.000  0.000  0.994 -0.001  0.000
       0.000 -0.000 -0.001  0.993 -0.000
       0.000 -0.001  0.000 -0.000  0.993
     SPIN  2
     eigenvalues:
       0.350  0.350  0.987  0.987  0.988
     eigenvectors (columns):
       0.000  0.000 -0.000  0.000  1.000
      -0.126  0.806  0.333  0.472  0.000
       0.806  0.126  0.472 -0.333  0.000
      -0.571 -0.089  0.667 -0.470  0.000
       0.089 -0.571  0.470  0.667  0.000
     occupation matrix ns (before diag.):
       0.988  0.000  0.000  0.000  0.000
       0.000  0.563  0.000 -0.000  0.301
       0.000  0.000  0.563  0.301  0.000
       0.000 -0.000  0.301  0.775 -0.000
       0.000  0.301  0.000 -0.000  0.775
     ------------------------ ATOM    2 ------------------------
     Tr[ns(  2)] (up, down, total) =   3.90566  4.97130  8.87696
     Atomic magnetic moment for atom   2 =  -1.06565
     SPIN  1
     eigenvalues:
       0.471  0.471  0.987  0.987  0.988
     eigenvectors (columns):
       0.000  0.000 -0.000  0.000  1.000
      -0.078  0.806  0.341  0.477  0.000
       0.806  0.078  0.477 -0.341  0.000
      -0.584 -0.057  0.659 -0.471  0.000
       0.057 -0.584  0.471  0.659  0.000
     occupation matrix ns (before diag.):
       0.988  0.000  0.000  0.000  0.000
       0.000  0.649  0.000 -0.000  0.245
       0.000  0.000  0.649  0.245  0.000
       0.000 -0.000  0.245  0.810 -0.000
       0.000  0.245  0.000 -0.000  0.810
     SPIN  2
     eigenvalues:
       0.994  0.994  0.994  0.995  0.995
     eigenvectors (columns):
       0.000 -0.000  1.000  0.000  0.000
      -0.231 -0.384  0.000  0.750  0.486
      -0.384  0.231  0.000 -0.486  0.750
      -0.766  0.461  0.000  0.244 -0.376
      -0.461 -0.766  0.000 -0.376 -0.244
     occupation matrix ns (before diag.):
       0.994  0.000  0.000  0.000  0.000
       0.000  0.995  0.000 -0.000 -0.001
       0.000  0.000  0.995 -0.001  0.000
       0.000 -0.000 -0.001  0.994 -0.000
       0.000 -0.001  0.000 -0.000  0.994

     Number of occupied Hubbard levels =   17.5058

     HUBBARD ENERGY =    0.2671  (Ry)

     total cpu time spent up to now is       30.4 secs

     total energy              =    -770.45711241 Ry
     estimated scf accuracy    <       0.06566719 Ry

     total magnetization       =     0.00 Bohr mag/cell
     absolute magnetization    =     4.03 Bohr mag/cell

     iteration # 16     ecut=    49.00 Ry     beta= 0.20
     Davidson diagonalization with overlap

---- Real-time Memory Report at c_bands before calling an iterative solver
           113 MiB given to the printing process from OS
            74 MiB allocation reported by mallinfo(arena+hblkhd)
        238765 MiB available memory on the node where the printing process lives
------------------
     ethr =  3.09E-05,  avg # of iterations =  4.3

     =================== HUBBARD OCCUPATIONS ===================
     ------------------------ ATOM    1 ------------------------
     Tr[ns(  1)] (up, down, total) =   4.96586  3.66312  8.62898
     Atomic magnetic moment for atom   1 =   1.30274
     SPIN  1
     eigenvalues:
       0.992  0.992  0.993  0.994  0.994
     eigenvectors (columns):
      -0.000  0.000 -1.000  0.000 -0.000
       0.231  0.384 -0.000  0.750 -0.487
       0.384 -0.231 -0.000 -0.487 -0.750
       0.766 -0.461 -0.000  0.244  0.376
       0.461  0.766 -0.000 -0.376  0.244
     occupation matrix ns (before diag.):
       0.993  0.000  0.000  0.000  0.000
       0.000  0.994  0.000 -0.000 -0.001
       0.000  0.000  0.994 -0.001  0.000
       0.000 -0.000 -0.001  0.993 -0.000
       0.000 -0.001  0.000 -0.000  0.993
     SPIN  2
     eigenvalues:
       0.351  0.351  0.987  0.987  0.988
     eigenvectors (columns):
       0.000  0.000 -0.000  0.000  1.000
      -0.110  0.808  0.334  0.473  0.000
       0.808  0.110  0.473 -0.334  0.000
      -0.574 -0.078  0.666 -0.470  0.000
       0.078 -0.574  0.470  0.666  0.000
     occupation matrix ns (before diag.):
       0.988  0.000  0.000  0.000  0.000
       0.000  0.564  0.000 -0.000  0.300
       0.000  0.000  0.564  0.300  0.000
       0.000 -0.000  0.300  0.773 -0.000
       0.000  0.300  0.000 -0.000  0.773
     ------------------------ ATOM    2 ------------------------
     Tr[ns(  2)] (up, down, total) =   3.68653  4.96413  8.65066
     Atomic magnetic moment for atom   2 =  -1.27760
     SPIN  1
     eigenvalues:
       0.365  0.365  0.985  0.985  0.987
     eigenvectors (columns):
       0.000  0.000 -0.000  0.000  1.000
      -0.084  0.808  0.338  0.475  0.000
       0.808  0.084  0.475 -0.338  0.000
      -0.580 -0.060  0.662 -0.471  0.000
       0.060 -0.580  0.471  0.662  0.000
     occupation matrix ns (before diag.):
       0.987  0.000  0.000  0.000  0.000
       0.000  0.575  0.000 -0.000  0.294
       0.000  0.000  0.575  0.294  0.000
       0.000 -0.000  0.294  0.774 -0.000
       0.000  0.294  0.000 -0.000  0.774
     SPIN  2
     eigenvalues:
       0.992  0.992  0.992  0.994  0.994
     eigenvectors (columns):
      -0.000  0.000 -1.000  0.000 -0.000
       0.239  0.392 -0.000  0.732 -0.503
       0.392 -0.239 -0.000 -0.503 -0.732
       0.759 -0.462 -0.000  0.260  0.379
       0.462  0.759 -0.000 -0.379  0.260
     occupation matrix ns (before diag.):
       0.992  0.000  0.000  0.000  0.000
       0.000  0.994  0.000 -0.000 -0.001
       0.000  0.000  0.994 -0.001  0.000
       0.000 -0.000 -0.001  0.992 -0.000
       0.000 -0.001  0.000 -0.000  0.992

     Number of occupied Hubbard levels =   17.2796

     HUBBARD ENERGY =    0.2622  (Ry)

     total cpu time spent up to now is       31.3 secs

     total energy              =    -770.46535877 Ry
     estimated scf accuracy    <       0.01026030 Ry

     total magnetization       =    -0.00 Bohr mag/cell
     absolute magnetization    =     4.05 Bohr mag/cell

     iteration # 17     ecut=    49.00 Ry     beta= 0.20
     Davidson diagonalization with overlap

---- Real-time Memory Report at c_bands before calling an iterative solver
           113 MiB given to the printing process from OS
            74 MiB allocation reported by mallinfo(arena+hblkhd)
        238762 MiB available memory on the node where the printing process lives
------------------
     ethr =  1.60E-05,  avg # of iterations =  4.2

     =================== HUBBARD OCCUPATIONS ===================
     ------------------------ ATOM    1 ------------------------
     Tr[ns(  1)] (up, down, total) =   4.96664  3.66283  8.62948
     Atomic magnetic moment for atom   1 =   1.30381
     SPIN  1
     eigenvalues:
       0.992  0.992  0.993  0.995  0.995
     eigenvectors (columns):
      -0.000  0.000 -1.000 -0.000  0.000
       0.216  0.366 -0.000 -0.780  0.460
       0.366 -0.216 -0.000  0.460  0.780
       0.780 -0.460 -0.000 -0.216 -0.366
       0.460  0.780 -0.000  0.366 -0.216
     occupation matrix ns (before diag.):
       0.993  0.000  0.000  0.000  0.000
       0.000  0.994  0.000 -0.000 -0.001
       0.000  0.000  0.994 -0.001  0.000
       0.000 -0.000 -0.001  0.993 -0.000
       0.000 -0.001  0.000 -0.000  0.993
     SPIN  2
     eigenvalues:
       0.350  0.350  0.987  0.987  0.988
     eigenvectors (columns):
       0.000  0.000 -0.000  0.000  1.000
      -0.123  0.806  0.334  0.473  0.000
       0.806  0.123  0.473 -0.334  0.000
      -0.572 -0.088  0.666 -0.470  0.000
       0.088 -0.572  0.470  0.666  0.000
     occupation matrix ns (before diag.):
       0.988  0.000  0.000  0.000  0.000
       0.000  0.563  0.000 -0.000  0.301
       0.000  0.000  0.563  0.301  0.000
       0.000 -0.000  0.301  0.774 -0.000
       0.000  0.301  0.000 -0.000  0.774
     ------------------------ ATOM    2 ------------------------
     Tr[ns(  2)] (up, down, total) =   3.77186  4.96746  8.73932
     Atomic magnetic moment for atom   2 =  -1.19560
     SPIN  1
     eigenvalues:
       0.406  0.406  0.986  0.986  0.987
     eigenvectors (columns):
       0.000  0.000 -0.000  0.000  1.000
      -0.076  0.808  0.339  0.476  0.000
       0.808  0.076  0.476 -0.339  0.000
      -0.582 -0.055  0.661 -0.471  0.000
       0.055 -0.582  0.471  0.661  0.000
     occupation matrix ns (before diag.):
       0.987  0.000  0.000  0.000  0.000
       0.000  0.604  0.000 -0.000  0.275
       0.000  0.000  0.604  0.275  0.000
       0.000 -0.000  0.275  0.788 -0.000
       0.000  0.275  0.000 -0.000  0.788
     SPIN  2
     eigenvalues:
       0.993  0.993  0.993  0.995  0.995
     eigenvectors (columns):
      -0.000  0.000 -1.000  0.000 -0.000
       0.234  0.388 -0.000  0.743 -0.493
       0.388 -0.234 -0.000 -0.493 -0.743
       0.763 -0.462 -0.000  0.250  0.378
       0.462  0.763 -0.000 -0.378  0.250
     occupation matrix ns (before diag.):
       0.993  0.000  0.000  0.000  0.000
       0.000  0.994  0.000 -0.000 -0.001
       0.000  0.000  0.994 -0.001  0.000
       0.000 -0.000 -0.001  0.993 -0.000
       0.000 -0.001  0.000 -0.000  0.993

     Number of occupied Hubbard levels =   17.3688

     HUBBARD ENERGY =    0.2598  (Ry)

     total cpu time spent up to now is       32.0 secs

     total energy              =    -770.46709274 Ry
     estimated scf accuracy    <       0.01379261 Ry

     total magnetization       =     0.00 Bohr mag/cell
     absolute magnetization    =     4.05 Bohr mag/cell

     iteration # 18     ecut=    49.00 Ry     beta= 0.20
     Davidson diagonalization with overlap

---- Real-time Memory Report at c_bands before calling an iterative solver
           113 MiB given to the printing process from OS
            74 MiB allocation reported by mallinfo(arena+hblkhd)
        238760 MiB available memory on the node where the printing process lives
------------------
     ethr =  1.60E-05,  avg # of iterations =  3.0

     =================== HUBBARD OCCUPATIONS ===================
     ------------------------ ATOM    1 ------------------------
     Tr[ns(  1)] (up, down, total) =   4.96342  3.63163  8.59504
     Atomic magnetic moment for atom   1 =   1.33179
     SPIN  1
     eigenvalues:
       0.992  0.992  0.992  0.994  0.994
     eigenvectors (columns):
      -0.000  0.000 -1.000  0.000 -0.000
       0.224  0.376 -0.000  0.764 -0.473
       0.376 -0.224 -0.000 -0.473 -0.764
       0.772 -0.461 -0.000  0.231  0.372
       0.461  0.772 -0.000 -0.372  0.231
     occupation matrix ns (before diag.):
       0.992  0.000  0.000  0.000  0.000
       0.000  0.994  0.000 -0.000 -0.001
       0.000  0.000  0.994 -0.001  0.000
       0.000 -0.000 -0.001  0.992 -0.000
       0.000 -0.001  0.000 -0.000  0.992
     SPIN  2
     eigenvalues:
       0.336  0.336  0.986  0.986  0.987
     eigenvectors (columns):
       0.000  0.000 -0.000  0.000  1.000
      -0.120  0.807  0.333  0.473  0.000
       0.807  0.120  0.473 -0.333  0.000
      -0.572 -0.085  0.667 -0.470  0.000
       0.085 -0.572  0.470  0.667  0.000
     occupation matrix ns (before diag.):
       0.987  0.000  0.000  0.000  0.000
       0.000  0.554  0.000 -0.000  0.307
       0.000  0.000  0.554  0.307  0.000
       0.000 -0.000  0.307  0.769 -0.000
       0.000  0.307  0.000 -0.000  0.769
     ------------------------ ATOM    2 ------------------------
     Tr[ns(  2)] (up, down, total) =   3.77202  4.96763  8.73965
     Atomic magnetic moment for atom   2 =  -1.19561
     SPIN  1
     eigenvalues:
       0.406  0.406  0.986  0.986  0.988
     eigenvectors (columns):
      -0.000  0.000 -0.000  0.000 -1.000
[...]

     occupation numbers 
     1.0000   1.0000   1.0000   1.0000   1.0000   1.0000   1.0000   1.0000
     1.0000   1.0000   1.0000   1.0000   1.0000   1.0000   1.0000   1.0000
     1.0000   1.0000   1.0000   1.0000   1.0000   1.0000   1.0000   1.0000
     1.0000   1.0000   1.0000   1.0000   1.0000   1.0000   1.0000   1.0000

          k =-0.8974 0.5181 0.1689 (  7437 PWs)   bands (ev):

  -103.4994-102.1540 -62.4364 -62.4246 -62.4043 -60.9314 -60.9070 -60.8973
    -7.8131  -7.6144  -7.2092  -6.9329  -1.2062  -1.1244  -0.3065  -0.1464
     0.0194   0.3720   0.6189   0.9116   1.2150   1.5195   2.2193   2.4241
     3.0209   3.1463   3.3939   3.6515   3.8527   4.0492   4.2859   4.8260

     occupation numbers 
     1.0000   1.0000   1.0000   1.0000   1.0000   1.0000   1.0000   1.0000
     1.0000   1.0000   1.0000   1.0000   1.0000   1.0000   1.0000   1.0000
     1.0000   1.0000   1.0000   1.0000   1.0000   1.0000   1.0000   1.0000
     1.0000   1.0000   1.0000   1.0000   1.0000   1.0000   1.0000   1.0000

          k = 1.7949 2.0726-0.0844 (  7434 PWs)   bands (ev):

  -103.4993-102.1539 -62.4372 -62.4220 -62.4118 -60.9206 -60.9157 -60.9055
    -7.2919  -7.0862  -7.0558  -6.7647  -1.1821  -0.8910  -0.3093  -0.1250
    -0.0434   0.3790   0.3899   0.7608   0.7894   1.3123   1.6621   1.9400
     2.1208   2.2651   2.9234   2.9675   3.0149   3.4751   3.7893   4.4104

     occupation numbers 
     1.0000   1.0000   1.0000   1.0000   1.0000   1.0000   1.0000   1.0000
     1.0000   1.0000   1.0000   1.0000   1.0000   1.0000   1.0000   1.0000
     1.0000   1.0000   1.0000   1.0000   1.0000   1.0000   1.0000   1.0000
     1.0000   1.0000   1.0000   1.0000   1.0000   1.0000   1.0000   1.0000

          k = 0.8974 1.5544 0.0000 (  7426 PWs)   bands (ev):

  -103.4989-102.1535 -62.4297 -62.4150 -62.4124 -60.9123 -60.9084 -60.9063
    -7.2921  -7.0808  -7.0611  -6.7645  -1.1562  -0.8920  -0.3111  -0.1203
    -0.0398   0.3857   0.3908   0.7608   0.7967   1.3247   1.6563   1.9754
     2.0744   2.2852   2.9163   2.9592   3.0088   3.4914   3.7983   4.4099

     occupation numbers 
     1.0000   1.0000   1.0000   1.0000   1.0000   1.0000   1.0000   1.0000
     1.0000   1.0000   1.0000   1.0000   1.0000   1.0000   1.0000   1.0000
     1.0000   1.0000   1.0000   1.0000   1.0000   1.0000   1.0000   1.0000
     1.0000   1.0000   1.0000   1.0000   1.0000   1.0000   1.0000   1.0000

          k = 1.7949-1.0363-0.3377 (  7422 PWs)   bands (ev):

  -103.4987-102.1534 -62.4266 -62.4220 -62.4064 -60.9160 -60.9152 -60.8937
    -7.2112  -7.1546  -7.0122  -6.8079  -1.1680  -0.8869  -0.6680  -0.2454
     0.0308   0.1494   0.7987   0.8433   0.9308   1.0373   1.1570   1.4504
     2.8016   2.9867   3.0622   3.1785   3.2824   3.2940   4.3248   4.6611

     occupation numbers 
     1.0000   1.0000   1.0000   1.0000   1.0000   1.0000   1.0000   1.0000
     1.0000   1.0000   1.0000   1.0000   1.0000   1.0000   1.0000   1.0000
     1.0000   1.0000   1.0000   1.0000   1.0000   1.0000   1.0000   1.0000
     1.0000   1.0000   1.0000   1.0000   1.0000   1.0000   1.0000   1.0000

          k = 0.0000 0.0000 0.2533 (  7445 PWs)   bands (ev):

  -103.4995-102.1541 -62.4294 -62.4153 -62.4153 -60.9109 -60.9097 -60.9097
    -8.2188  -8.0280  -7.3569  -7.1404  -1.2407  -1.2407  -0.4949  -0.0326
    -0.0326   0.1169   0.8159   0.8159   1.3482   1.9012   3.3383   3.3383
     3.4168   4.2616   4.5110   4.5110   4.7145   4.7145   4.9256   4.9256

     occupation numbers 
     1.0000   1.0000   1.0000   1.0000   1.0000   1.0000   1.0000   1.0000
     1.0000   1.0000   1.0000   1.0000   1.0000   1.0000   1.0000   1.0000
     1.0000   1.0000   1.0000   1.0000   1.0000   1.0000   1.0000   1.0000
     1.0000   1.0000   1.0000   1.0000   1.0000   1.0000   1.0000   1.0000

          k = 2.6923 1.5544 0.0000 (  7424 PWs)   bands (ev):

  -103.4985-102.1532 -62.4278 -62.4216 -62.3909 -60.9227 -60.9032 -60.8841
    -7.8114  -7.6179  -7.2049  -6.9351  -1.2048  -1.1194  -0.2929  -0.1226
     0.0435   0.3818   0.6416   0.9354   1.2107   1.5210   2.2752   2.4103
     3.0383   3.1461   3.2953   3.6566   3.9060   4.0451   4.2938   4.8297

     occupation numbers 
     1.0000   1.0000   1.0000   1.0000   1.0000   1.0000   1.0000   1.0000
     1.0000   1.0000   1.0000   1.0000   1.0000   1.0000   1.0000   1.0000
     1.0000   1.0000   1.0000   1.0000   1.0000   1.0000   1.0000   1.0000
     1.0000   1.0000   1.0000   1.0000   1.0000   1.0000   1.0000   1.0000

          k = 1.7949 1.0363 0.0844 (  7422 PWs)   bands (ev):

  -103.4988-102.1533 -62.4253 -62.4168 -62.4136 -60.9136 -60.9078 -60.9047
    -7.2112  -7.1547  -7.0120  -6.8080  -1.1589  -0.8786  -0.6766  -0.2541
     0.0038   0.1760   0.7833   0.8206   0.9480   1.0649   1.1448   1.4317
     2.8105   2.9891   3.0344   3.1736   3.2967   3.3125   4.3161   4.6656

     occupation numbers 
     1.0000   1.0000   1.0000   1.0000   1.0000   1.0000   1.0000   1.0000
     1.0000   1.0000   1.0000   1.0000   1.0000   1.0000   1.0000   1.0000
     1.0000   1.0000   1.0000   1.0000   1.0000   1.0000   1.0000   1.0000
     1.0000   1.0000   1.0000   1.0000   1.0000   1.0000   1.0000   1.0000

          k = 2.6923-1.5544-0.2533 (  7422 PWs)   bands (ev):

  -103.4985-102.1530 -62.4197 -62.4183 -62.3979 -60.9142 -60.9009 -60.8908
    -7.8105  -7.6196  -7.2027  -6.9363  -1.1770  -1.1201  -0.2861  -0.1346
     0.0361   0.3845   0.6289   0.9276   1.2144   1.5231   2.2279   2.4406
     3.0228   3.1537   3.2976   3.6561   4.0475   4.0512   4.1737   4.8324

     occupation numbers 
     1.0000   1.0000   1.0000   1.0000   1.0000   1.0000   1.0000   1.0000
     1.0000   1.0000   1.0000   1.0000   1.0000   1.0000   1.0000   1.0000
     1.0000   1.0000   1.0000   1.0000   1.0000   1.0000   1.0000   1.0000
     1.0000   1.0000   1.0000   1.0000   1.0000   1.0000   1.0000   1.0000

          k = 1.7949-2.0726-0.1689 (  7414 PWs)   bands (ev):

  -103.4982-102.1528 -62.4220 -62.4108 -62.4019 -60.9137 -60.8955 -60.8954
    -7.2915  -7.0900  -7.0518  -6.7649  -1.1456  -0.8637  -0.2994  -0.1173
    -0.0227   0.3818   0.3971   0.7816   0.7864   1.3148   1.6644   1.9200
     2.1682   2.2393   2.9355   2.9942   3.0140   3.4651   3.7889   4.4144

     occupation numbers 
     1.0000   1.0000   1.0000   1.0000   1.0000   1.0000   1.0000   1.0000
     1.0000   1.0000   1.0000   1.0000   1.0000   1.0000   1.0000   1.0000
     1.0000   1.0000   1.0000   1.0000   1.0000   1.0000   1.0000   1.0000
     1.0000   1.0000   1.0000   1.0000   1.0000   1.0000   1.0000   1.0000

          k = 0.0000 0.0000-0.5066 (  7440 PWs)   bands (ev):

  -103.4993-102.1538 -62.4468 -62.4025 -62.4025 -60.9291 -60.8968 -60.8968
    -8.2161  -8.0329  -7.3481  -7.1470  -1.2275  -1.2275  -0.5191  -0.0116
    -0.0116   0.0857   0.8381   0.8381   1.3535   1.8058   3.3414   3.3414
     3.7625   3.9390   4.5132   4.5132   4.7113   4.7113   4.9309   4.9309

     occupation numbers 
     1.0000   1.0000   1.0000   1.0000   1.0000   1.0000   1.0000   1.0000
     1.0000   1.0000   1.0000   1.0000   1.0000   1.0000   1.0000   1.0000
     1.0000   1.0000   1.0000   1.0000   1.0000   1.0000   1.0000   1.0000
     1.0000   1.0000   1.0000   1.0000   1.0000   1.0000   1.0000   1.0000

 ------ SPIN DOWN ----------


          k = 0.0000 0.0000 0.0000 (  7403 PWs)   bands (ev):

  -103.4970-102.1518 -62.3985 -62.3946 -62.3946 -60.8879 -60.8879 -60.8738
    -8.2210  -8.0227  -7.3650  -7.1342  -1.1998  -1.1998  -0.4701   0.0009
     0.0009   0.1663   0.8484   0.8484   1.3428   2.0141   3.2185   3.3570
     3.3570   4.4284   4.5095   4.5095   4.7183   4.7183   4.9305   4.9305

     occupation numbers 
     1.0000   1.0000   1.0000   1.0000   1.0000   1.0000   1.0000   1.0000
     1.0000   1.0000   1.0000   1.0000   1.0000   1.0000   1.0000   1.0000
     1.0000   1.0000   1.0000   1.0000   1.0000   1.0000   1.0000   1.0000
     1.0000   1.0000   1.0000   1.0000   1.0000   1.0000   1.0000   1.0000

          k =-0.8974-0.5181 0.0844 (  7427 PWs)   bands (ev):

  -103.4987-102.1534 -62.4332 -62.4206 -62.3931 -60.9279 -60.9019 -60.8869
    -7.8137  -7.6125  -7.2110  -6.9317  -1.1989  -1.1163  -0.2984  -0.1288
     0.0247   0.3788   0.6366   0.9176   1.2144   1.5226   2.2589   2.4012
     3.0362   3.1485   3.4152   3.6528   3.7473   4.0494   4.3512   4.8279

     occupation numbers 
     1.0000   1.0000   1.0000   1.0000   1.0000   1.0000   1.0000   1.0000
     1.0000   1.0000   1.0000   1.0000   1.0000   1.0000   1.0000   1.0000
     1.0000   1.0000   1.0000   1.0000   1.0000   1.0000   1.0000   1.0000
     1.0000   1.0000   1.0000   1.0000   1.0000   1.0000   1.0000   1.0000

          k = 1.7949 1.0363-0.1689 (  7408 PWs)   bands (ev):

  -103.4978-102.1526 -62.4223 -62.4036 -62.4036 -60.9044 -60.8979 -60.8972
    -7.2109  -7.1543  -7.0117  -6.8079  -1.1638  -0.8592  -0.6598  -0.2474
     0.0154   0.2027   0.8018   0.8236   0.9676   1.0862   1.1300   1.4358
     2.8262   2.9913   3.0020   3.1686   3.3019   3.3516   4.3050   4.6652

     occupation numbers 
     1.0000   1.0000   1.0000   1.0000   1.0000   1.0000   1.0000   1.0000
     1.0000   1.0000   1.0000   1.0000   1.0000   1.0000   1.0000   1.0000
     1.0000   1.0000   1.0000   1.0000   1.0000   1.0000   1.0000   1.0000
     1.0000   1.0000   1.0000   1.0000   1.0000   1.0000   1.0000   1.0000

          k =-0.8974 0.5181 0.1689 (  7437 PWs)   bands (ev):

  -103.4993-102.1540 -62.4363 -62.4245 -62.4043 -60.9314 -60.9071 -60.8973
    -7.8131  -7.6144  -7.2092  -6.9329  -1.2061  -1.1243  -0.3064  -0.1464
     0.0194   0.3719   0.6188   0.9115   1.2150   1.5195   2.2193   2.4241
     3.0209   3.1463   3.3939   3.6515   3.8527   4.0492   4.2859   4.8261

     occupation numbers 
     1.0000   1.0000   1.0000   1.0000   1.0000   1.0000   1.0000   1.0000
     1.0000   1.0000   1.0000   1.0000   1.0000   1.0000   1.0000   1.0000
     1.0000   1.0000   1.0000   1.0000   1.0000   1.0000   1.0000   1.0000
     1.0000   1.0000   1.0000   1.0000   1.0000   1.0000   1.0000   1.0000

          k = 1.7949 2.0726-0.0844 (  7434 PWs)   bands (ev):

  -103.4992-102.1540 -62.4371 -62.4220 -62.4118 -60.9206 -60.9157 -60.9055
    -7.2919  -7.0861  -7.0558  -6.7647  -1.1820  -0.8909  -0.3093  -0.1249
    -0.0434   0.3789   0.3899   0.7608   0.7894   1.3123   1.6621   1.9400
     2.1208   2.2651   2.9234   2.9675   3.0148   3.4751   3.7893   4.4104

     occupation numbers 
     1.0000   1.0000   1.0000   1.0000   1.0000   1.0000   1.0000   1.0000
     1.0000   1.0000   1.0000   1.0000   1.0000   1.0000   1.0000   1.0000
     1.0000   1.0000   1.0000   1.0000   1.0000   1.0000   1.0000   1.0000
     1.0000   1.0000   1.0000   1.0000   1.0000   1.0000   1.0000   1.0000

          k = 0.8974 1.5544 0.0000 (  7426 PWs)   bands (ev):

  -103.4988-102.1535 -62.4296 -62.4150 -62.4124 -60.9123 -60.9084 -60.9063
    -7.2920  -7.0808  -7.0611  -6.7646  -1.1562  -0.8920  -0.3111  -0.1203
    -0.0398   0.3857   0.3908   0.7608   0.7967   1.3247   1.6564   1.9754
     2.0744   2.2852   2.9164   2.9592   3.0088   3.4913   3.7984   4.4099

     occupation numbers 
     1.0000   1.0000   1.0000   1.0000   1.0000   1.0000   1.0000   1.0000
     1.0000   1.0000   1.0000   1.0000   1.0000   1.0000   1.0000   1.0000
     1.0000   1.0000   1.0000   1.0000   1.0000   1.0000   1.0000   1.0000
     1.0000   1.0000   1.0000   1.0000   1.0000   1.0000   1.0000   1.0000

          k = 1.7949-1.0363-0.3377 (  7422 PWs)   bands (ev):

  -103.4986-102.1534 -62.4265 -62.4220 -62.4064 -60.9160 -60.9153 -60.8937
    -7.2111  -7.1546  -7.0122  -6.8079  -1.1679  -0.8868  -0.6679  -0.2454
     0.0309   0.1495   0.7987   0.8434   0.9308   1.0373   1.1570   1.4504
     2.8017   2.9867   3.0622   3.1785   3.2824   3.2940   4.3248   4.6611

     occupation numbers 
     1.0000   1.0000   1.0000   1.0000   1.0000   1.0000   1.0000   1.0000
     1.0000   1.0000   1.0000   1.0000   1.0000   1.0000   1.0000   1.0000
     1.0000   1.0000   1.0000   1.0000   1.0000   1.0000   1.0000   1.0000
     1.0000   1.0000   1.0000   1.0000   1.0000   1.0000   1.0000   1.0000

          k = 0.0000 0.0000 0.2533 (  7445 PWs)   bands (ev):

  -103.4995-102.1542 -62.4293 -62.4153 -62.4153 -60.9110 -60.9098 -60.9098
    -8.2188  -8.0280  -7.3569  -7.1404  -1.2406  -1.2406  -0.4948  -0.0325
    -0.0325   0.1169   0.8159   0.8159   1.3482   1.9012   3.3383   3.3383
     3.4168   4.2616   4.5110   4.5110   4.7145   4.7145   4.9256   4.9256

     occupation numbers 
     1.0000   1.0000   1.0000   1.0000   1.0000   1.0000   1.0000   1.0000
     1.0000   1.0000   1.0000   1.0000   1.0000   1.0000   1.0000   1.0000
     1.0000   1.0000   1.0000   1.0000   1.0000   1.0000   1.0000   1.0000
     1.0000   1.0000   1.0000   1.0000   1.0000   1.0000   1.0000   1.0000

          k = 2.6923 1.5544 0.0000 (  7424 PWs)   bands (ev):

  -103.4985-102.1533 -62.4278 -62.4215 -62.3909 -60.9227 -60.9032 -60.8841
    -7.8113  -7.6179  -7.2049  -6.9352  -1.2048  -1.1193  -0.2928  -0.1226
     0.0435   0.3817   0.6415   0.9353   1.2107   1.5209   2.2752   2.4104
     3.0383   3.1460   3.2954   3.6566   3.9060   4.0451   4.2938   4.8297

     occupation numbers 
     1.0000   1.0000   1.0000   1.0000   1.0000   1.0000   1.0000   1.0000
     1.0000   1.0000   1.0000   1.0000   1.0000   1.0000   1.0000   1.0000
     1.0000   1.0000   1.0000   1.0000   1.0000   1.0000   1.0000   1.0000
     1.0000   1.0000   1.0000   1.0000   1.0000   1.0000   1.0000   1.0000

          k = 1.7949 1.0363 0.0844 (  7422 PWs)   bands (ev):

  -103.4987-102.1534 -62.4252 -62.4168 -62.4136 -60.9137 -60.9078 -60.9047
    -7.2111  -7.1547  -7.0121  -6.8080  -1.1588  -0.8785  -0.6766  -0.2541
     0.0038   0.1760   0.7833   0.8207   0.9480   1.0649   1.1447   1.4316
     2.8105   2.9891   3.0344   3.1735   3.2966   3.3125   4.3161   4.6656

     occupation numbers 
     1.0000   1.0000   1.0000   1.0000   1.0000   1.0000   1.0000   1.0000
     1.0000   1.0000   1.0000   1.0000   1.0000   1.0000   1.0000   1.0000
     1.0000   1.0000   1.0000   1.0000   1.0000   1.0000   1.0000   1.0000
     1.0000   1.0000   1.0000   1.0000   1.0000   1.0000   1.0000   1.0000

          k = 2.6923-1.5544-0.2533 (  7422 PWs)   bands (ev):

  -103.4984-102.1531 -62.4197 -62.4182 -62.3978 -60.9142 -60.9009 -60.8908
    -7.8105  -7.6196  -7.2027  -6.9364  -1.1769  -1.1201  -0.2860  -0.1345
     0.0361   0.3845   0.6288   0.9276   1.2144   1.5230   2.2280   2.4406
     3.0228   3.1537   3.2977   3.6561   4.0475   4.0512   4.1737   4.8324

     occupation numbers 
     1.0000   1.0000   1.0000   1.0000   1.0000   1.0000   1.0000   1.0000
     1.0000   1.0000   1.0000   1.0000   1.0000   1.0000   1.0000   1.0000
     1.0000   1.0000   1.0000   1.0000   1.0000   1.0000   1.0000   1.0000
     1.0000   1.0000   1.0000   1.0000   1.0000   1.0000   1.0000   1.0000

          k = 1.7949-2.0726-0.1689 (  7414 PWs)   bands (ev):

  -103.4982-102.1528 -62.4219 -62.4107 -62.4018 -60.9137 -60.8956 -60.8954
    -7.2915  -7.0900  -7.0518  -6.7649  -1.1455  -0.8637  -0.2994  -0.1173
    -0.0226   0.3818   0.3970   0.7815   0.7865   1.3147   1.6644   1.9200
     2.1683   2.2392   2.9355   2.9942   3.0139   3.4651   3.7890   4.4144

     occupation numbers 
     1.0000   1.0000   1.0000   1.0000   1.0000   1.0000   1.0000   1.0000
     1.0000   1.0000   1.0000   1.0000   1.0000   1.0000   1.0000   1.0000
     1.0000   1.0000   1.0000   1.0000   1.0000   1.0000   1.0000   1.0000
     1.0000   1.0000   1.0000   1.0000   1.0000   1.0000   1.0000   1.0000

          k = 0.0000 0.0000-0.5066 (  7440 PWs)   bands (ev):

  -103.4993-102.1539 -62.4467 -62.4024 -62.4024 -60.9292 -60.8968 -60.8968
    -8.2161  -8.0329  -7.3481  -7.1470  -1.2275  -1.2275  -0.5190  -0.0115
    -0.0115   0.0856   0.8381   0.8381   1.3535   1.8058   3.3414   3.3414
     3.7625   3.9390   4.5132   4.5132   4.7113   4.7113   4.9309   4.9309

     occupation numbers 
     1.0000   1.0000   1.0000   1.0000   1.0000   1.0000   1.0000   1.0000
     1.0000   1.0000   1.0000   1.0000   1.0000   1.0000   1.0000   1.0000
     1.0000   1.0000   1.0000   1.0000   1.0000   1.0000   1.0000   1.0000
     1.0000   1.0000   1.0000   1.0000   1.0000   1.0000   1.0000   1.0000

     highest occupied level (ev):     4.9309

!    total energy              =    -770.47253803 Ry
     estimated scf accuracy    <          8.1E-11 Ry

     The total energy is the sum of the following terms:
     one-electron contribution =    -762.86487387 Ry
     hartree contribution      =     397.25902939 Ry
     xc contribution           =    -115.34806785 Ry
     ewald contribution        =    -289.72261652 Ry
     Hubbard energy            =       0.20399082 Ry

     total magnetization       =     0.00 Bohr mag/cell
     absolute magnetization    =     4.06 Bohr mag/cell

     convergence has been achieved in  53 iterations

     Writing all to output data dir ./tmp/NiI2.save/ :
     XML data file, charge density, pseudopotentials, collected wavefunctions

     init_run     :      1.35s CPU      1.58s WALL (       1 calls)
     electrons    :     40.21s CPU     41.26s WALL (       1 calls)

     Called by init_run:
     wfcinit      :      0.21s CPU      0.32s WALL (       1 calls)
     wfcinit:atom :      0.00s CPU      0.00s WALL (       4 calls)
     wfcinit:wfcr :      0.20s CPU      0.30s WALL (       4 calls)
     potinit      :      0.12s CPU      0.17s WALL (       1 calls)
     hinit0       :      0.89s CPU      0.95s WALL (       1 calls)

     Called by electrons:
     c_bands      :     28.73s CPU     29.20s WALL (      53 calls)
     sum_band     :      5.27s CPU      5.36s WALL (      53 calls)
     v_of_rho     :      5.19s CPU      5.59s WALL (      54 calls)
     v_h          :      0.13s CPU      0.14s WALL (      54 calls)
     v_xc         :      5.05s CPU      5.45s WALL (      54 calls)
     mix_rho      :      0.26s CPU      0.27s WALL (      53 calls)

     Called by c_bands:
     init_us_2    :      0.09s CPU      0.10s WALL (     432 calls)
     cegterg      :     24.46s CPU     24.68s WALL (     212 calls)

     Called by sum_band:
     sum_band:wei :      0.00s CPU      0.00s WALL (      53 calls)
     sum_band:loo :      4.35s CPU      4.43s WALL (      53 calls)
     sum_band:buf :      0.01s CPU      0.01s WALL (     212 calls)
     sum_band:ini :      0.05s CPU      0.05s WALL (     212 calls)

     Called by *egterg:
     cdiaghg      :      1.48s CPU      1.59s WALL (     980 calls)
     cegterg:over :      0.19s CPU      0.19s WALL (     768 calls)
     cegterg:upda :      0.09s CPU      0.09s WALL (     768 calls)
     cegterg:last :      0.12s CPU      0.12s WALL (     412 calls)
     h_psi        :     22.65s CPU     22.87s WALL (     984 calls)
     g_psi        :      0.01s CPU      0.01s WALL (     768 calls)

     Called by h_psi:
     h_psi:calbec :      0.35s CPU      0.35s WALL (     984 calls)
     vloc_psi     :     22.00s CPU     22.20s WALL (     984 calls)
                                        0.00s GPU  (     984 calls)
     add_vuspsi   :      0.20s CPU      0.20s WALL (     984 calls)
     vhpsi        :      0.08s CPU      0.09s WALL (     984 calls)

     General routines
     calbec       :      0.42s CPU      0.43s WALL (    2184 calls)
     fft          :      2.13s CPU      2.26s WALL (    1024 calls)
     ffts         :      0.14s CPU      0.14s WALL (     106 calls)
     fftw         :     23.41s CPU     23.66s WALL (   40932 calls)

     Parallel routines

     Hubbard U routines
     new_ns       :      0.05s CPU      0.05s WALL (      53 calls)
     vhpsi        :      0.08s CPU      0.09s WALL (     984 calls)

     PWSCF        :     43.59s CPU   1m 0.34s WALL


   This run was terminated on:  18:32:56   5Mar2026            

=------------------------------------------------------------------------------=
   JOB DONE.
=------------------------------------------------------------------------------=
