
     Program HP v.7.5 starts on  5Mar2026 at 18:41: 3 
        Git branch: HEAD
        Last git commit: 770a0b2d12928a67048e2f3da8d10d057e52179e
        Last git commit date: Tue Aug 19 09:57:12 2025 +0000
        Last git commit subject: Merge branch 'QE-7.5-RC' into 'master'

     This program is part of the open-source Quantum ESPRESSO suite
     for quantum simulation of materials; please cite
         "P. Giannozzi et al., J. Phys.:Condens. Matter 21 395502 (2009);
         "P. Giannozzi et al., J. Phys.:Condens. Matter 29 465901 (2017);
         "P. Giannozzi et al., J. Chem. Phys. 152 154105 (2020);
          URL http://www.quantum-espresso.org", 
     in publications or presentations arising from this work. More details at
     http://www.quantum-espresso.org/quote

     Parallel version (MPI), running on   256 processors

     MPI processes distributed on     8 nodes
     R & G space division:  proc/nbgrp/npool/nimage =     256
     240286 MiB available memory on the printing compute node when the environment starts


     =---------------------------------------------------------------------------=

           Calculation of Hubbard parameters using the HP code based on DFPT      

               Please cite the following papers when using this program:          

                 - HP code : Comput. Phys. Commun. 279, 108455 (2022).            

                                                                                  

           For a nonrelativistic, collinear calculation:                          

                 - Theory  : I. Timrov et al, Phys. Rev. B 98,  085127 (2018) and 

                             I. Timrov et al, Phys. Rev. B 103, 045141 (2021).    

                                                                                  

           For a fully-relativistic, and/or noncollinear calculation:             

                 - Theory  : L. Binci et al., Phys. Rev. B 108, 115157 (2023) and 

                             I. Timrov et al, Phys. Rev. B 98,  085127 (2018) 

     =-----------------------------------------------------------------------------=

     Reading xml data from directory:

     ./tmp/NiI2.save/

     IMPORTANT: XC functional enforced from input :
     Exchange-correlation= PBESOL
                           (   1   4  10   8   0   0   0)
     Any further DFT definition will be discarded
     Please, verify this is what you really want


     Parallelization info
     --------------------
     sticks:   dense  smooth     PW     G-vecs:    dense   smooth      PW
     Min          12      12      3                  230      230      36
     Max          13      13      4                  233      233      41
     Sum        3099    3099    945                59333    59333    9983

     Using Pencil Decomposition


     Check: negative core charge=   -0.000024
     Reading collected, re-writing distributed wavefunctions


     bravais-lattice index     =             5
     lattice parameter (alat)  =       26.8360 (a.u.)
     unit-cell volume          =     1281.9023 (a.u.)^3
     number of atoms/cell      =             6
     number of atomic types    =             3
     kinetic-energy cut-off    =         49.00 (Ry)
     charge density cut-off    =        196.00 (Ry)
     conv. thresh. for NSCF    =       1.0E-11
     conv. thresh. for chi     =       1.0E-05
     Input Hubbard parameters (in eV):
       U ( 1)                     =   5.51870E+00
       U ( 2)                     =   5.51870E+00

     celldm(1) = 26.83600  celldm(2) =  0.00000  celldm(3) =  0.00000
     celldm(4) =  0.96120  celldm(5) =  0.00000  celldm(6) =  0.00000

     crystal axes: (cart. coord. in units of alat)
               a(1) = (  0.1393 -0.0804  0.9870 )  
               a(2) = (  0.0000  0.1608  0.9870 )  
               a(3) = ( -0.1393 -0.0804  0.9870 )  

     reciprocal axes: (cart. coord. in units 2 pi/alat)
               b(1) = (  3.5898 -2.0726  0.3377 )  
               b(2) = (  0.0000  4.1451  0.3377 )  
               b(3) = ( -3.5898 -2.0726  0.3377 )  

     Atoms inside the unit cell (Cartesian axes):
     site n.  atom      mass           positions (alat units)
        1   Ni1       58.6934   tau(  1) = (  0.00000  0.00000  0.00000  )
        2   Ni2       58.6934   tau(  2) = (  0.13928  0.08042  0.49349  )
        3   I        126.9045   tau(  3) = ( -0.00000 -0.00000  0.38561  )
        4   I        126.9045   tau(  4) = (  0.13928  0.08042  0.87910  )
        5   I        126.9045   tau(  5) = (  0.13928  0.08042  0.10788  )
        6   I        126.9045   tau(  6) = (  0.13928 -0.08042  0.60138  )

     Atom which will be perturbed:

        1   Ni1       58.6934   tau( 1) = (  0.00000  0.00000  0.00000  )

     =====================================================================

                          PERTURBED ATOM #    1

     site n.  atom      mass           positions (alat units)
        1   Ni1       58.6934   tau( 1) = (  0.00000  0.00000  0.00000  )

     =====================================================================

     The perturbed atom has a type which is unique!


     The grid of q-points ( 3, 3, 3)  (  6 q-points ) :
       N       xq(1)         xq(2)         xq(3)       wq
       1   0.000000000   0.000000000   0.000000000   0.037037037
       2  -1.196596931  -0.690855560   0.112576642   0.222222222
       3  -1.196596931   0.690855560   0.225153283   0.222222222
       4   1.196596931   2.072566681   0.000000000   0.222222222
       5   0.000000000  -0.000000000   0.337729925   0.074074074
       6   2.393193862   1.381711120   0.112576642   0.222222222


     =-------------------------------------------------------------=

     Calculation for q #   1 = (   0.0000000   0.0000000   0.0000000 )

     =-------------------------------------------------------------=

                   WRITING LINEAR-RESPONSE SUMMARY:




     Number of symmetries in the small group of q, nsymq = 12
      + the symmetry q -> -q+G 

     G cutoff = 3575.4600  (    233 G-vectors)     FFT grid: (120,120,120)

     Number of k (and k+q if q/=0) points =    26

                       cart. coord. (in units 2pi/alat)
        k (    1) = (   0.0000000   0.0000000   0.0000000), wk = 0.0156250
        k (    2) = (  -0.8974477  -0.5181417   0.0844325), wk = 0.0937500
        k (    3) = (   1.7948954   1.0362833  -0.1688650), wk = 0.0468750
        k (    4) = (  -0.8974477   0.5181417   0.1688650), wk = 0.0937500
        k (    5) = (   1.7948954   2.0725667  -0.0844325), wk = 0.1875000
        k (    6) = (   0.8974477   1.5544250   0.0000000), wk = 0.0937500
        k (    7) = (   1.7948954  -1.0362833  -0.3377299), wk = 0.0468750
        k (    8) = (   0.0000000   0.0000000   0.2532974), wk = 0.0312500
        k (    9) = (   2.6923431   1.5544250   0.0000000), wk = 0.0937500
        k (   10) = (   1.7948954   1.0362833   0.0844325), wk = 0.0937500
        k (   11) = (   2.6923431  -1.5544250  -0.2532974), wk = 0.0937500
        k (   12) = (   1.7948954  -2.0725667  -0.1688650), wk = 0.0937500
        k (   13) = (   0.0000000   0.0000000  -0.5065949), wk = 0.0156250
        k (   14) = (   0.0000000   0.0000000   0.0000000), wk = 0.0156250
        k (   15) = (  -0.8974477  -0.5181417   0.0844325), wk = 0.0937500
        k (   16) = (   1.7948954   1.0362833  -0.1688650), wk = 0.0468750
        k (   17) = (  -0.8974477   0.5181417   0.1688650), wk = 0.0937500
        k (   18) = (   1.7948954   2.0725667  -0.0844325), wk = 0.1875000
        k (   19) = (   0.8974477   1.5544250   0.0000000), wk = 0.0937500
        k (   20) = (   1.7948954  -1.0362833  -0.3377299), wk = 0.0468750
        k (   21) = (   0.0000000   0.0000000   0.2532974), wk = 0.0312500
        k (   22) = (   2.6923431   1.5544250   0.0000000), wk = 0.0937500
        k (   23) = (   1.7948954   1.0362833   0.0844325), wk = 0.0937500
        k (   24) = (   2.6923431  -1.5544250  -0.2532974), wk = 0.0937500
        k (   25) = (   1.7948954  -2.0725667  -0.1688650), wk = 0.0937500
        k (   26) = (   0.0000000   0.0000000  -0.5065949), wk = 0.0156250

                       cryst. coord.
        k (    1) = (   0.0000000   0.0000000   0.0000000), wk = 0.0156250
        k (    2) = (   0.0000000  -0.0000000   0.2500000), wk = 0.0937500
        k (    3) = (  -0.0000000  -0.0000000  -0.5000000), wk = 0.0468750
        k (    4) = (   0.0000000   0.2500000   0.2500000), wk = 0.0937500
        k (    5) = (  -0.0000000   0.2500000  -0.5000000), wk = 0.1875000
        k (    6) = (  -0.0000000   0.2500000  -0.2500000), wk = 0.0937500
        k (    7) = (  -0.0000000  -0.5000000  -0.5000000), wk = 0.0468750
        k (    8) = (   0.2500000   0.2500000   0.2500000), wk = 0.0312500
        k (    9) = (   0.2500000   0.2500000  -0.5000000), wk = 0.0937500
        k (   10) = (   0.2500000   0.2500000  -0.2500000), wk = 0.0937500
        k (   11) = (   0.2500000  -0.5000000  -0.5000000), wk = 0.0937500
        k (   12) = (   0.2500000  -0.5000000  -0.2500000), wk = 0.0937500
        k (   13) = (  -0.5000000  -0.5000000  -0.5000000), wk = 0.0156250
        k (   14) = (   0.0000000   0.0000000   0.0000000), wk = 0.0156250
        k (   15) = (   0.0000000  -0.0000000   0.2500000), wk = 0.0937500
        k (   16) = (  -0.0000000  -0.0000000  -0.5000000), wk = 0.0468750
        k (   17) = (   0.0000000   0.2500000   0.2500000), wk = 0.0937500
        k (   18) = (  -0.0000000   0.2500000  -0.5000000), wk = 0.1875000
        k (   19) = (  -0.0000000   0.2500000  -0.2500000), wk = 0.0937500
        k (   20) = (  -0.0000000  -0.5000000  -0.5000000), wk = 0.0468750
        k (   21) = (   0.2500000   0.2500000   0.2500000), wk = 0.0312500
        k (   22) = (   0.2500000   0.2500000  -0.5000000), wk = 0.0937500
        k (   23) = (   0.2500000   0.2500000  -0.2500000), wk = 0.0937500
        k (   24) = (   0.2500000  -0.5000000  -0.5000000), wk = 0.0937500
        k (   25) = (   0.2500000  -0.5000000  -0.2500000), wk = 0.0937500
        k (   26) = (  -0.5000000  -0.5000000  -0.5000000), wk = 0.0156250

     Atomic wfc used for the projector on the Hubbard manifold are orthogonalized

     Total time spent up to now is:
     HP           :     15.98s CPU     31.66s WALL

      =--------------------------------------------=
                 SOLVE THE LINEAR SYSTEM
      =--------------------------------------------=

      atom #  1   q point #   1   iter #   1
      chi:   1  -0.2770522849
      chi:   2   0.0006888903
      Average number of iter. to solve lin. system:   45.0
      Total CPU time :    59.7 s

      atom #  1   q point #   1   iter #   2
      chi:   1   0.0661616353   residue:    0.3432139203
      chi:   2  -0.0060225350   residue:    0.0067114254
      Average number of iter. to solve lin. system:   22.1
      Total CPU time :    75.7 s

      atom #  1   q point #   1   iter #   3
      chi:   1  -0.0908466613   residue:    0.1570082966
      chi:   2   0.0020551061   residue:    0.0080776411
      Average number of iter. to solve lin. system:   21.0
      Total CPU time :    91.2 s

      atom #  1   q point #   1   iter #   4
      chi:   1  -0.1079499193   residue:    0.0171032580
      chi:   2  -0.0032620331   residue:    0.0053171391
      Average number of iter. to solve lin. system:   23.1
      Total CPU time :   107.9 s

      atom #  1   q point #   1   iter #   5
      chi:   1  -0.1094775464   residue:    0.0015276271
      chi:   2   0.0004265511   residue:    0.0036885841
      Average number of iter. to solve lin. system:   24.2
      Total CPU time :   125.0 s

      atom #  1   q point #   1   iter #   6
      chi:   1  -0.1093211008   residue:    0.0001564455
      chi:   2  -0.0005469294   residue:    0.0009734805
      Average number of iter. to solve lin. system:   23.6
      Total CPU time :   141.6 s

      atom #  1   q point #   1   iter #   7
      chi:   1  -0.1094199356   residue:    0.0000988348
      chi:   2  -0.0003563182   residue:    0.0001906113
      Average number of iter. to solve lin. system:   24.1
      Total CPU time :   158.8 s

      atom #  1   q point #   1   iter #   8
      chi:   1  -0.1098559923   residue:    0.0004360567
      chi:   2  -0.0002097867   residue:    0.0001465315
      Average number of iter. to solve lin. system:   24.8
      Total CPU time :   176.5 s

      atom #  1   q point #   1   iter #   9
      chi:   1  -0.1099379857   residue:    0.0000819935
      chi:   2  -0.0002346555   residue:    0.0000248689
      Average number of iter. to solve lin. system:   24.8
      Total CPU time :   194.0 s

      atom #  1   q point #   1   iter #  10
      chi:   1  -0.1099538170   residue:    0.0000158312
      chi:   2  -0.0002397042   residue:    0.0000050487
      Average number of iter. to solve lin. system:   24.9
      Total CPU time :   211.7 s

      atom #  1   q point #   1   iter #  11
      chi:   1  -0.1099484421   residue:    0.0000053749
      chi:   2  -0.0002419233   residue:    0.0000022191
      Average number of iter. to solve lin. system:   23.5
      Total CPU time :   229.3 s
      
      =--------------------------------------------=
             CONVERGENCE HAS BEEN REACHED
      =--------------------------------------------=


     =-------------------------------------------------------------=

     Calculation for q #   2 = (  -1.1965969  -0.6908556   0.1125766 )

     =-------------------------------------------------------------=

     Performing NSCF calculation at all points k and k+q...
     Subspace diagonalization in iterative solution of the eigenvalue problem:
     a serial algorithm will be used


     Parallelization info
     --------------------
     sticks:   dense  smooth     PW     G-vecs:    dense   smooth      PW
     Min          12      12      4                  230      230      41
     Max          13      13      5                  233      233      46
     Sum        3099    3099   1025                59333    59333   11371

     Using Pencil Decomposition



     bravais-lattice index     =            5
     lattice parameter (alat)  =      26.8360  a.u.
     unit-cell volume          =    1281.9023 (a.u.)^3
     number of atoms/cell      =            6
     number of atomic types    =            3
     number of electrons       =        64.00 (up:  32.00, down:  32.00)
     number of Kohn-Sham states=           32
     kinetic-energy cutoff     =      49.0000  Ry
     charge density cutoff     =     196.0000  Ry
     Exchange-correlation= PBESOL
                           (   1   4  10   8   0   0   0)
     Hubbard projectors: ortho-atomic
     Hubbard parameters of DFT+U (Dudarev formulation) in eV:
     U(Ni1-3d) =  5.5187
     U(Ni2-3d) =  5.5187

     Internal variables: lda_plus_u =T, lda_plus_u_kind = 0

     Internal variables: orbital_resolved =F, hub_pot_fix =F, apply_U = F

     celldm(1)=  26.836001  celldm(2)=   0.000000  celldm(3)=   0.000000
     celldm(4)=   0.961200  celldm(5)=   0.000000  celldm(6)=   0.000000

     crystal axes: (cart. coord. in units of alat)
               a(1) = (   0.139284  -0.080416   0.986982 )  
               a(2) = (   0.000000   0.160831   0.986982 )  
               a(3) = (  -0.139284  -0.080416   0.986982 )  

     reciprocal axes: (cart. coord. in units 2 pi/alat)
               b(1) = (  3.589791 -2.072567  0.337730 )  
               b(2) = (  0.000000  4.145133  0.337730 )  
               b(3) = ( -3.589791 -2.072567  0.337730 )  


     PseudoPot. # 1 for Ni read from file:
     ./Pseudos/Ni_pbesol.upf
     MD5 check sum: 3ec56ad6bf78c9cc1bbec815420e1c7d
     Pseudo is Norm-conserving + core correction, Zval = 18.0
     Generated using ONCVPSP code by D. R. Hamann
     Using radial grid of 1356 points,  6 beta functions with: 
                l(1) =   0
                l(2) =   0
                l(3) =   1
                l(4) =   1
                l(5) =   2
                l(6) =   2

     PseudoPot. # 2 for Ni read from file:
     ./Pseudos/Ni_pbesol.upf
     MD5 check sum: 3ec56ad6bf78c9cc1bbec815420e1c7d
     Pseudo is Norm-conserving + core correction, Zval = 18.0
     Generated using ONCVPSP code by D. R. Hamann
     Using radial grid of 1356 points,  6 beta functions with: 
                l(1) =   0
                l(2) =   0
                l(3) =   1
                l(4) =   1
                l(5) =   2
                l(6) =   2

     PseudoPot. # 3 for I  read from file:
     ./Pseudos/I_pbesol.upf
     MD5 check sum: 80ed5ceb2eb9c553cfb6760a299d9c5b
     Pseudo is Norm-conserving + core correction, Zval =  7.0
     Generated using ONCVPSP code by D. R. Hamann
     Using radial grid of 1182 points,  6 beta functions with: 
                l(1) =   0
                l(2) =   0
                l(3) =   1
                l(4) =   1
                l(5) =   2
                l(6) =   2

     atomic species   valence    mass     pseudopotential
     Ni1              18.00    58.69340     Ni( 1.00)
     Ni2              18.00    58.69340     Ni( 1.00)
     I                 7.00   126.90447     I ( 1.00)

     Starting magnetic structure 
     atomic species   magnetization
     Ni1             0.600
     Ni2            -0.600
     I               0.000

     12 Sym. Ops., with inversion, found



   Cartesian axes

     site n.     atom                  positions (alat units)
         1        Ni1    tau(   1) = (   0.0000000   0.0000000   0.0000000  )
         2        Ni2    tau(   2) = (   0.1392839   0.0804156   0.4934910  )
         3        I      tau(   3) = (  -0.0000000  -0.0000000   0.3856062  )
         4        I      tau(   4) = (   0.1392839   0.0804156   0.8790972  )
         5        I      tau(   5) = (   0.1392839   0.0804156   0.1078847  )
         6        I      tau(   6) = (   0.1392839  -0.0804156   0.6013757  )

     number of k points=    80
                       cart. coord. in units 2pi/alat
        k(    1) = (   0.0000000   0.0000000   0.0000000), wk =   0.0156250
        k(    2) = (  -1.1965969  -0.6908556   0.1125766), wk =   0.0000000
        k(    3) = (  -0.8974477  -0.5181417   0.0844325), wk =   0.0156250
        k(    4) = (  -2.0940446  -1.2089972   0.1970091), wk =   0.0000000
        k(    5) = (   1.7948954   1.0362833  -0.1688650), wk =   0.0156250
        k(    6) = (   0.5982985   0.3454278  -0.0562883), wk =   0.0000000
        k(    7) = (  -0.8974477   0.5181417   0.1688650), wk =   0.0312500
        k(    8) = (  -2.0940446  -0.1727139   0.2814416), wk =   0.0000000
        k(    9) = (   1.7948954   2.0725667  -0.0844325), wk =   0.0312500
        k(   10) = (   0.5982985   1.3817111   0.0281442), wk =   0.0000000
        k(   11) = (   0.8974477   1.5544250   0.0000000), wk =   0.0312500
        k(   12) = (  -0.2991492   0.8635695   0.1125766), wk =   0.0000000
        k(   13) = (   1.7948954  -1.0362833  -0.3377299), wk =   0.0312500
        k(   14) = (   0.5982985  -1.7271389  -0.2251533), wk =   0.0000000
        k(   15) = (   0.0000000   0.0000000   0.2532974), wk =   0.0156250
        k(   16) = (  -1.1965969  -0.6908556   0.3658741), wk =   0.0000000
        k(   17) = (   2.6923431   1.5544250   0.0000000), wk =   0.0156250
        k(   18) = (   1.4957462   0.8635695   0.1125766), wk =   0.0000000
        k(   19) = (   1.7948954   1.0362833   0.0844325), wk =   0.0156250
        k(   20) = (   0.5982985   0.3454278   0.1970091), wk =   0.0000000
        k(   21) = (   2.6923431  -1.5544250  -0.2532974), wk =   0.0312500
        k(   22) = (   1.4957462  -2.2452806  -0.1407208), wk =   0.0000000
        k(   23) = (   1.7948954  -2.0725667  -0.1688650), wk =   0.0312500
        k(   24) = (   0.5982985  -2.7634222  -0.0562883), wk =   0.0000000
        k(   25) = (   0.0000000   0.0000000  -0.5065949), wk =   0.0156250
        k(   26) = (  -1.1965969  -0.6908556  -0.3940182), wk =   0.0000000
        k(   27) = (   0.8974477  -0.5181417   0.0844325), wk =   0.0312500
        k(   28) = (  -0.2991492  -1.2089972   0.1970091), wk =   0.0000000
        k(   29) = (   0.8974477   0.5181417  -0.0844325), wk =   0.0156250
        k(   30) = (  -0.2991492  -0.1727139   0.0281442), wk =   0.0000000
        k(   31) = (  -0.0000000  -1.0362833  -0.0844325), wk =   0.0312500
        k(   32) = (  -1.1965969  -1.7271389   0.0281442), wk =   0.0000000
        k(   33) = (  -1.7948954   1.0362833  -0.1688650), wk =   0.0312500
        k(   34) = (  -2.9914923   0.3454278  -0.0562883), wk =   0.0000000
        k(   35) = (   0.8974477   0.5181417   0.1688650), wk =   0.0156250
        k(   36) = (  -0.2991492  -0.1727139   0.2814416), wk =   0.0000000
        k(   37) = (  -0.0000000   1.0362833  -0.1688650), wk =   0.0312500
        k(   38) = (  -1.1965969   0.3454278  -0.0562883), wk =   0.0000000
        k(   39) = (  -0.8974477  -0.5181417  -0.1688650), wk =   0.0156250
        k(   40) = (  -2.0940446  -1.2089972  -0.0562883), wk =   0.0000000
        k(   41) = (  -2.6923431   0.5181417  -0.0844325), wk =   0.0312500
        k(   42) = (  -3.8889400  -0.1727139   0.0281442), wk =   0.0000000
        k(   43) = (   0.8974477  -2.5907084  -0.0844325), wk =   0.0312500
        k(   44) = (  -0.2991492  -3.2815639   0.0281442), wk =   0.0000000
        k(   45) = (  -2.6923431  -0.5181417   0.0844325), wk =   0.0312500
        k(   46) = (  -3.8889400  -1.2089972   0.1970091), wk =   0.0000000
        k(   47) = (   0.8974477   2.5907084   0.0844325), wk =   0.0312500
        k(   48) = (  -0.2991492   1.8998528   0.1970091), wk =   0.0000000
        k(   49) = (  -0.8974477   2.5907084   0.0844325), wk =   0.0312500
        k(   50) = (  -2.0940446   1.8998528   0.1970091), wk =   0.0000000
        k(   51) = (  -1.7948954  -0.0000000   0.0000000), wk =   0.0312500
        k(   52) = (  -2.9914923  -0.6908556   0.1125766), wk =   0.0000000
        k(   53) = (   0.8974477  -1.5544250  -0.0000000), wk =   0.0312500
        k(   54) = (  -0.2991492  -2.2452806   0.1125766), wk =   0.0000000
        k(   55) = (  -1.7948954  -1.0362833  -0.3377299), wk =   0.0156250
        k(   56) = (  -2.9914923  -1.7271389  -0.2251533), wk =   0.0000000
        k(   57) = (   0.0000000   0.0000000  -0.2532974), wk =   0.0156250
        k(   58) = (  -1.1965969  -0.6908556  -0.1407208), wk =   0.0000000
        k(   59) = (  -2.6923431   1.5544250   0.0000000), wk =   0.0312500
        k(   60) = (  -3.8889400   0.8635695   0.1125766), wk =   0.0000000
        k(   61) = (  -2.6923431  -1.5544250  -0.0000000), wk =   0.0156250
        k(   62) = (  -3.8889400  -2.2452806   0.1125766), wk =   0.0000000
        k(   63) = (   0.0000000   3.1088500   0.0000000), wk =   0.0312500
        k(   64) = (  -1.1965969   2.4179945   0.1125766), wk =   0.0000000
        k(   65) = (  -1.7948954   1.0362833   0.0844325), wk =   0.0312500
        k(   66) = (  -2.9914923   0.3454278   0.1970091), wk =   0.0000000
        k(   67) = (  -1.7948954  -1.0362833  -0.0844325), wk =   0.0156250
        k(   68) = (  -2.9914923  -1.7271389   0.0281442), wk =   0.0000000
        k(   69) = (   0.0000000   2.0725667  -0.0844325), wk =   0.0312500
        k(   70) = (  -1.1965969   1.3817111   0.0281442), wk =   0.0000000
        k(   71) = (  -2.6923431  -1.5544250  -0.2532974), wk =   0.0156250
        k(   72) = (  -3.8889400  -2.2452806  -0.1407208), wk =   0.0000000
        k(   73) = (   0.0000000  -3.1088500   0.2532974), wk =   0.0312500
        k(   74) = (  -1.1965969  -3.7997056   0.3658741), wk =   0.0000000
        k(   75) = (   2.6923431   1.5544250   0.2532974), wk =   0.0156250
        k(   76) = (   1.4957462   0.8635695   0.3658741), wk =   0.0000000
        k(   77) = (   0.8974477   2.5907084  -0.1688650), wk =   0.0312500
        k(   78) = (  -0.2991492   1.8998528  -0.0562883), wk =   0.0000000
        k(   79) = (  -2.6923431  -0.5181417  -0.1688650), wk =   0.0312500
        k(   80) = (  -3.8889400  -1.2089972  -0.0562883), wk =   0.0000000

     Dense  grid:    59333 G-vectors     FFT dimensions: ( 120, 120, 120)

     Estimated max dynamical RAM per process >       5.82 MB

     Estimated total dynamical RAM >       1.45 GB
     Message from routine sym_rho_init:
     some processors have no G-vectors for symmetrization
     Message from routine sym_rho_init:
     some processors have no G-vectors for symmetrization
     Message from routine sym_rho_init:
     some processors have no G-vectors for symmetrization
     Message from routine sym_rho_init:
     some processors have no G-vectors for symmetrization
     Message from routine sym_rho_init:
     some processors have no G-vectors for symmetrization
     Message from routine sym_rho_init:
     some processors have no G-vectors for symmetrization
     Message from routine sym_rho_init:
     some processors have no G-vectors for symmetrization
     Message from routine sym_rho_init:
     some processors have no G-vectors for symmetrization
     Message from routine sym_rho_init:
     some processors have no G-vectors for symmetrization
     Message from routine sym_rho_init:
     some processors have no G-vectors for symmetrization
     Message from routine sym_rho_init:
     some processors have no G-vectors for symmetrization
     Message from routine sym_rho_init:
     some processors have no G-vectors for symmetrization
     Message from routine sym_rho_init:
     some processors have no G-vectors for symmetrization
     Message from routine sym_rho_init:
     some processors have no G-vectors for symmetrization
     Message from routine sym_rho_init:
     some processors have no G-vectors for symmetrization
     Message from routine sym_rho_init:
     some processors have no G-vectors for symmetrization
     Message from routine sym_rho_init:
     some processors have no G-vectors for symmetrization
     Message from routine sym_rho_init:
     some processors have no G-vectors for symmetrization
     Message from routine sym_rho_init:
     some processors have no G-vectors for symmetrization
     Message from routine sym_rho_init:
     some processors have no G-vectors for symmetrization
     Message from routine sym_rho_init:
     some processors have no G-vectors for symmetrization
     Message from routine sym_rho_init:
     some processors have no G-vectors for symmetrization
     Message from routine sym_rho_init:
     some processors have no G-vectors for symmetrization
     Message from routine sym_rho_init:
     some processors have no G-vectors for symmetrization
     Message from routine sym_rho_init:
     some processors have no G-vectors for symmetrization
     Message from routine sym_rho_init:
     some processors have no G-vectors for symmetrization
     Message from routine sym_rho_init:
     some processors have no G-vectors for symmetrization
     Message from routine sym_rho_init:
     some processors have no G-vectors for symmetrization
     Message from routine sym_rho_init:
     some processors have no G-vectors for symmetrization
     Message from routine sym_rho_init:
     some processors have no G-vectors for symmetrization
     Message from routine sym_rho_init:
     some processors have no G-vectors for symmetrization
     Message from routine sym_rho_init:
     some processors have no G-vectors for symmetrization
     Message from routine sym_rho_init:
     some processors have no G-vectors for symmetrization
     Message from routine sym_rho_init:
     some processors have no G-vectors for symmetrization
     Message from routine sym_rho_init:
     some processors have no G-vectors for symmetrization
     Message from routine sym_rho_init:
     some processors have no G-vectors for symmetrization
     Message from routine sym_rho_init:
     some processors have no G-vectors for symmetrization
     Message from routine sym_rho_init:
     some processors have no G-vectors for symmetrization
     Message from routine sym_rho_init:
     some processors have no G-vectors for symmetrization
     Message from routine sym_rho_init:
     some processors have no G-vectors for symmetrization
     Message from routine sym_rho_init:
     some processors have no G-vectors for symmetrization
     Message from routine sym_rho_init:
     some processors have no G-vectors for symmetrization
     Message from routine sym_rho_init:
     some processors have no G-vectors for symmetrization
     Message from routine sym_rho_init:
     some processors have no G-vectors for symmetrization
     Message from routine sym_rho_init:
     some processors have no G-vectors for symmetrization
     Message from routine sym_rho_init:
     some processors have no G-vectors for symmetrization
     Message from routine sym_rho_init:
     some processors have no G-vectors for symmetrization
     Message from routine sym_rho_init:
     some processors have no G-vectors for symmetrization
     Message from routine sym_rho_init:
     some processors have no G-vectors for symmetrization
     Message from routine sym_rho_init:
     some processors have no G-vectors for symmetrization
     Message from routine sym_rho_init:
     some processors have no G-vectors for symmetrization
     Message from routine sym_rho_init:
     some processors have no G-vectors for symmetrization
     Message from routine sym_rho_init:
     some processors have no G-vectors for symmetrization
     Message from routine sym_rho_init:
     some processors have no G-vectors for symmetrization
     Message from routine sym_rho_init:
     some processors have no G-vectors for symmetrization
     Message from routine sym_rho_init:
     some processors have no G-vectors for symmetrization
     Message from routine sym_rho_init:
     some processors have no G-vectors for symmetrization
     Message from routine sym_rho_init:
     some processors have no G-vectors for symmetrization
     Message from routine sym_rho_init:
     some processors have no G-vectors for symmetrization
     Message from routine sym_rho_init:
     some processors have no G-vectors for symmetrization
     Message from routine sym_rho_init:
     some processors have no G-vectors for symmetrization
     Message from routine sym_rho_init:
     some processors have no G-vectors for symmetrization
     Message from routine sym_rho_init:
     some processors have no G-vectors for symmetrization
     Message from routine sym_rho_init:
     some processors have no G-vectors for symmetrization
     Message from routine sym_rho_init:
     some processors have no G-vectors for symmetrization
     Message from routine sym_rho_init:
     some processors have no G-vectors for symmetrization
     Message from routine sym_rho_init:
     some processors have no G-vectors for symmetrization
     Message from routine sym_rho_init:
     some processors have no G-vectors for symmetrization
     Message from routine sym_rho_init:
     some processors have no G-vectors for symmetrization
     Message from routine sym_rho_init:
     some processors have no G-vectors for symmetrization
     Message from routine sym_rho_init:
     some processors have no G-vectors for symmetrization
     Message from routine sym_rho_init:
     some processors have no G-vectors for symmetrization
     Message from routine sym_rho_init:
     some processors have no G-vectors for symmetrization
     Message from routine sym_rho_init:
     some processors have no G-vectors for symmetrization
     Message from routine sym_rho_init:
     some processors have no G-vectors for symmetrization
     Message from routine sym_rho_init:
     some processors have no G-vectors for symmetrization
     Message from routine sym_rho_init:
     some processors have no G-vectors for symmetrization
     Message from routine sym_rho_init:
     some processors have no G-vectors for symmetrization
     Message from routine sym_rho_init:
     some processors have no G-vectors for symmetrization
     Message from routine sym_rho_init:
     some processors have no G-vectors for symmetrization
     Message from routine sym_rho_init:
     some processors have no G-vectors for symmetrization
     Message from routine sym_rho_init:
     some processors have no G-vectors for symmetrization
     Message from routine sym_rho_init:
     some processors have no G-vectors for symmetrization
     Message from routine sym_rho_init:
     some processors have no G-vectors for symmetrization
     Message from routine sym_rho_init:
     some processors have no G-vectors for symmetrization
     Message from routine sym_rho_init:
     some processors have no G-vectors for symmetrization
     Message from routine sym_rho_init:
     some processors have no G-vectors for symmetrization
     Message from routine sym_rho_init:
     some processors have no G-vectors for symmetrization
     Message from routine sym_rho_init:
     some processors have no G-vectors for symmetrization
     Message from routine sym_rho_init:
     some processors have no G-vectors for symmetrization
     Message from routine sym_rho_init:
     some processors have no G-vectors for symmetrization
     Message from routine sym_rho_init:
     some processors have no G-vectors for symmetrization
     Message from routine sym_rho_init:
     some processors have no G-vectors for symmetrization
     Message from routine sym_rho_init:
     some processors have no G-vectors for symmetrization
     Message from routine sym_rho_init:
     some processors have no G-vectors for symmetrization
     Message from routine sym_rho_init:
     some processors have no G-vectors for symmetrization
     Message from routine sym_rho_init:
     some processors have no G-vectors for symmetrization
     Message from routine sym_rho_init:
     some processors have no G-vectors for symmetrization
     Message from routine sym_rho_init:
     some processors have no G-vectors for symmetrization
     Message from routine sym_rho_init:
     some processors have no G-vectors for symmetrization
     Message from routine sym_rho_init:
     some processors have no G-vectors for symmetrization
     Message from routine sym_rho_init:
     some processors have no G-vectors for symmetrization
     Message from routine sym_rho_init:
     some processors have no G-vectors for symmetrization

     Check: negative core charge=   -0.000024

     The potential is recalculated from file :
     ./tmp/HP/NiI2.save/charge-density


     STARTING HUBBARD OCCUPATIONS:

     =================== HUBBARD OCCUPATIONS ===================
     ------------------------ ATOM    1 ------------------------
     Tr[ns(  1)] (up, down, total) =   4.97063  3.62211  8.59274
     Atomic magnetic moment for atom   1 =   1.34853
     SPIN  1
     eigenvalues:
       0.993  0.993  0.994  0.995  0.995
     eigenvectors (columns):
      -0.000  0.000 -1.000  0.000 -0.000
       0.225  0.377 -0.000  0.763 -0.475
       0.377 -0.225 -0.000 -0.475 -0.763
       0.772 -0.461 -0.000  0.232  0.372
       0.461  0.772 -0.000 -0.372  0.232
     occupation matrix ns (before diag.):
       0.994  0.000  0.000  0.000  0.000
       0.000  0.995  0.000 -0.000 -0.001
       0.000  0.000  0.995 -0.001  0.000
       0.000 -0.000 -0.001  0.994 -0.000
       0.000 -0.001  0.000 -0.000  0.994
     SPIN  2
     eigenvalues:
       0.328  0.328  0.989  0.989  0.989
     eigenvectors (columns):
       0.000  0.000 -0.000  0.000  1.000
      -0.170  0.802  0.328  0.469  0.000
       0.802  0.170  0.469 -0.328  0.000
      -0.560 -0.119  0.672 -0.470  0.000
       0.119 -0.560  0.470  0.672  0.000
     occupation matrix ns (before diag.):
       0.989  0.000  0.000  0.000  0.000
       0.000  0.544  0.000 -0.000  0.310
       0.000  0.000  0.544  0.310  0.000
       0.000 -0.000  0.310  0.772 -0.000
       0.000  0.310  0.000 -0.000  0.772
     ------------------------ ATOM    2 ------------------------
     Tr[ns(  2)] (up, down, total) =   3.62211  4.97063  8.59274
     Atomic magnetic moment for atom   2 =  -1.34853
     SPIN  1
     eigenvalues:
       0.328  0.328  0.989  0.989  0.989
     eigenvectors (columns):
       0.000  0.000 -0.000  0.000  1.000
      -0.166  0.803  0.328  0.469  0.000
       0.803  0.166  0.469 -0.328  0.000
      -0.561 -0.116  0.672 -0.470  0.000
       0.116 -0.561  0.470  0.672  0.000
     occupation matrix ns (before diag.):
       0.989  0.000  0.000  0.000  0.000
       0.000  0.544  0.000 -0.000  0.310
       0.000  0.000  0.544  0.310  0.000
       0.000 -0.000  0.310  0.772 -0.000
       0.000  0.310  0.000 -0.000  0.772
     SPIN  2
     eigenvalues:
       0.993  0.993  0.994  0.995  0.995
     eigenvectors (columns):
      -0.000  0.000 -1.000  0.000 -0.000
       0.225  0.377 -0.000  0.763 -0.474
       0.377 -0.225 -0.000 -0.474 -0.763
       0.772 -0.461 -0.000  0.231  0.373
       0.461  0.772 -0.000 -0.373  0.231
     occupation matrix ns (before diag.):
       0.994  0.000  0.000  0.000  0.000
       0.000  0.995  0.000 -0.000 -0.001
       0.000  0.000  0.995 -0.001  0.000
       0.000 -0.000 -0.001  0.994 -0.000
       0.000 -0.001  0.000 -0.000  0.994

     Number of occupied Hubbard levels =   17.1855

     Atomic wfc used for Hubbard projectors are orthogonalized

     Starting wfcs are   36 atomic wfcs

     Band Structure Calculation
     Davidson diagonalization with overlap

     ethr =  1.00E-11,  avg # of iterations = 18.6

     total cpu time spent up to now is       -1.0 secs

     End of band structure calculation

     Number of k-points >= 100: set verbosity='high' to print the bands.

     highest occupied level (ev):     4.9309

     Writing all to output data dir ./tmp/HP/NiI2.save/ :
     XML data file, pseudopotentials, collected wavefunctions
     Done!

                   WRITING LINEAR-RESPONSE SUMMARY:




     Number of symmetries in the small group of q, nsymq =  2

     G cutoff = 3575.4600  (    233 G-vectors)     FFT grid: (120,120,120)

     Number of k (and k+q if q/=0) points =   160


     Atomic wfc used for the projector on the Hubbard manifold are orthogonalized

     Total time spent up to now is:
     HP           :   4m56.27s CPU   5m21.97s WALL

      =--------------------------------------------=
                 SOLVE THE LINEAR SYSTEM
      =--------------------------------------------=

      atom #  1   q point #   2   iter #   1
      chi:   1  -0.2912857158
      chi:   2  -0.0000400263
      Average number of iter. to solve lin. system:   51.0
      Total CPU time :   415.6 s

      atom #  1   q point #   2   iter #   2
      chi:   1   0.0938989700   residue:    0.3851846858
      chi:   2   0.0004592372   residue:    0.0004992635
      Average number of iter. to solve lin. system:   27.1
      Total CPU time :   468.9 s

      atom #  1   q point #   2   iter #   3
      chi:   1  -0.0905107009   residue:    0.1844096709
      chi:   2  -0.0005434305   residue:    0.0010026676
      Average number of iter. to solve lin. system:   25.4
      Total CPU time :   519.2 s

      atom #  1   q point #   2   iter #   4
      chi:   1  -0.1094911986   residue:    0.0189804976
      chi:   2   0.0008071430   residue:    0.0013505734
      Average number of iter. to solve lin. system:   27.3
      Total CPU time :   572.6 s

      atom #  1   q point #   2   iter #   5
      chi:   1  -0.1109715283   residue:    0.0014803297
      chi:   2  -0.0005313745   residue:    0.0013385175
      Average number of iter. to solve lin. system:   28.8
      Total CPU time :   628.9 s

      atom #  1   q point #   2   iter #   6
      chi:   1  -0.1112049845   residue:    0.0002334562
      chi:   2   0.0003052613   residue:    0.0008366358
      Average number of iter. to solve lin. system:   28.6
      Total CPU time :   684.9 s

      atom #  1   q point #   2   iter #   7
      chi:   1  -0.1112285103   residue:    0.0000235259
      chi:   2  -0.0000993150   residue:    0.0004045763
      Average number of iter. to solve lin. system:   28.7
      Total CPU time :   740.8 s

      atom #  1   q point #   2   iter #   8
      chi:   1  -0.1113836045   residue:    0.0001550942
      chi:   2   0.0000636844   residue:    0.0001629993
      Average number of iter. to solve lin. system:   29.3
      Total CPU time :   797.9 s

      atom #  1   q point #   2   iter #   9
      chi:   1  -0.1116420126   residue:    0.0002584081
      chi:   2  -0.0000101979   residue:    0.0000738823
      Average number of iter. to solve lin. system:   30.3
      Total CPU time :   857.4 s

      atom #  1   q point #   2   iter #  10
      chi:   1  -0.1117030117   residue:    0.0000609991
      chi:   2   0.0000110668   residue:    0.0000212647
      Average number of iter. to solve lin. system:   30.2
      Total CPU time :   916.0 s

      atom #  1   q point #   2   iter #  11
      chi:   1  -0.1117290799   residue:    0.0000260683
      chi:   2   0.0000086692   residue:    0.0000023976
      Average number of iter. to solve lin. system:   29.1
      Total CPU time :   972.7 s

      atom #  1   q point #   2   iter #  12
      chi:   1  -0.1117240985   residue:    0.0000049814
      chi:   2   0.0000074502   residue:    0.0000012190
      Average number of iter. to solve lin. system:   28.5
      Total CPU time :  1028.4 s
      
      =--------------------------------------------=
             CONVERGENCE HAS BEEN REACHED
      =--------------------------------------------=


     =-------------------------------------------------------------=

     Calculation for q #   3 = (  -1.1965969   0.6908556   0.2251533 )

     =-------------------------------------------------------------=

     Performing NSCF calculation at all points k and k+q...

     Parallelization info
     --------------------
     sticks:   dense  smooth     PW     G-vecs:    dense   smooth      PW
     Min          12      12      4                  230      230      41
     Max          13      13      5                  233      233      46
     Sum        3099    3099   1025                59333    59333   11383

     Using Pencil Decomposition



     bravais-lattice index     =            5
     lattice parameter (alat)  =      26.8360  a.u.
     unit-cell volume          =    1281.9023 (a.u.)^3
     number of atoms/cell      =            6
     number of atomic types    =            3
     number of electrons       =        64.00 (up:  32.00, down:  32.00)
     number of Kohn-Sham states=           32
     kinetic-energy cutoff     =      49.0000  Ry
     charge density cutoff     =     196.0000  Ry
     Exchange-correlation= PBESOL
                           (   1   4  10   8   0   0   0)
     Hubbard projectors: ortho-atomic
     Hubbard parameters of DFT+U (Dudarev formulation) in eV:
     U(Ni1-3d) =  5.5187
     U(Ni2-3d) =  5.5187

     Internal variables: lda_plus_u =T, lda_plus_u_kind = 0

     Internal variables: orbital_resolved =F, hub_pot_fix =F, apply_U = F

     celldm(1)=  26.836001  celldm(2)=   0.000000  celldm(3)=   0.000000
     celldm(4)=   0.961200  celldm(5)=   0.000000  celldm(6)=   0.000000

     crystal axes: (cart. coord. in units of alat)
               a(1) = (   0.139284  -0.080416   0.986982 )  
               a(2) = (   0.000000   0.160831   0.986982 )  
               a(3) = (  -0.139284  -0.080416   0.986982 )  

     reciprocal axes: (cart. coord. in units 2 pi/alat)
               b(1) = (  3.589791 -2.072567  0.337730 )  
               b(2) = (  0.000000  4.145133  0.337730 )  
               b(3) = ( -3.589791 -2.072567  0.337730 )  


     PseudoPot. # 1 for Ni read from file:
     ./Pseudos/Ni_pbesol.upf
     MD5 check sum: 3ec56ad6bf78c9cc1bbec815420e1c7d
     Pseudo is Norm-conserving + core correction, Zval = 18.0
     Generated using ONCVPSP code by D. R. Hamann
     Using radial grid of 1356 points,  6 beta functions with: 
                l(1) =   0
                l(2) =   0
                l(3) =   1
                l(4) =   1
                l(5) =   2
                l(6) =   2

     PseudoPot. # 2 for Ni read from file:
     ./Pseudos/Ni_pbesol.upf
     MD5 check sum: 3ec56ad6bf78c9cc1bbec815420e1c7d
     Pseudo is Norm-conserving + core correction, Zval = 18.0
     Generated using ONCVPSP code by D. R. Hamann
     Using radial grid of 1356 points,  6 beta functions with: 
                l(1) =   0
                l(2) =   0
                l(3) =   1
                l(4) =   1
                l(5) =   2
                l(6) =   2

     PseudoPot. # 3 for I  read from file:
     ./Pseudos/I_pbesol.upf
     MD5 check sum: 80ed5ceb2eb9c553cfb6760a299d9c5b
     Pseudo is Norm-conserving + core correction, Zval =  7.0
     Generated using ONCVPSP code by D. R. Hamann
     Using radial grid of 1182 points,  6 beta functions with: 
                l(1) =   0
                l(2) =   0
                l(3) =   1
                l(4) =   1
                l(5) =   2
                l(6) =   2

     atomic species   valence    mass     pseudopotential
     Ni1              18.00    58.69340     Ni( 1.00)
     Ni2              18.00    58.69340     Ni( 1.00)
     I                 7.00   126.90447     I ( 1.00)

     Starting magnetic structure 
     atomic species   magnetization
     Ni1             0.600
     Ni2            -0.600
     I               0.000

     12 Sym. Ops., with inversion, found



   Cartesian axes

     site n.     atom                  positions (alat units)
         1        Ni1    tau(   1) = (   0.0000000   0.0000000   0.0000000  )
         2        Ni2    tau(   2) = (   0.1392839   0.0804156   0.4934910  )
         3        I      tau(   3) = (  -0.0000000  -0.0000000   0.3856062  )
         4        I      tau(   4) = (   0.1392839   0.0804156   0.8790972  )
         5        I      tau(   5) = (   0.1392839   0.0804156   0.1078847  )
         6        I      tau(   6) = (   0.1392839  -0.0804156   0.6013757  )

     number of k points=    80
                       cart. coord. in units 2pi/alat
        k(    1) = (   0.0000000   0.0000000   0.0000000), wk =   0.0156250
        k(    2) = (  -1.1965969   0.6908556   0.2251533), wk =   0.0000000
        k(    3) = (  -0.8974477  -0.5181417   0.0844325), wk =   0.0312500
        k(    4) = (  -2.0940446   0.1727139   0.3095858), wk =   0.0000000
        k(    5) = (   1.7948954   1.0362833  -0.1688650), wk =   0.0312500
        k(    6) = (   0.5982985   1.7271389   0.0562883), wk =   0.0000000
        k(    7) = (  -0.8974477   0.5181417   0.1688650), wk =   0.0156250
        k(    8) = (  -2.0940446   1.2089972   0.3940182), wk =   0.0000000
        k(    9) = (   1.7948954   2.0725667  -0.0844325), wk =   0.0312500
        k(   10) = (   0.5982985   2.7634222   0.1407208), wk =   0.0000000
        k(   11) = (   0.8974477   1.5544250   0.0000000), wk =   0.0312500
        k(   12) = (  -0.2991492   2.2452806   0.2251533), wk =   0.0000000
        k(   13) = (   1.7948954  -1.0362833  -0.3377299), wk =   0.0156250
        k(   14) = (   0.5982985  -0.3454278  -0.1125766), wk =   0.0000000
        k(   15) = (   0.0000000   0.0000000   0.2532974), wk =   0.0156250
        k(   16) = (  -1.1965969   0.6908556   0.4784507), wk =   0.0000000
        k(   17) = (   2.6923431   1.5544250   0.0000000), wk =   0.0312500
        k(   18) = (   1.4957462   2.2452806   0.2251533), wk =   0.0000000
        k(   19) = (   1.7948954   1.0362833   0.0844325), wk =   0.0312500
        k(   20) = (   0.5982985   1.7271389   0.3095858), wk =   0.0000000
        k(   21) = (   2.6923431  -1.5544250  -0.2532974), wk =   0.0156250
        k(   22) = (   1.4957462  -0.8635695  -0.0281442), wk =   0.0000000
        k(   23) = (   1.7948954  -2.0725667  -0.1688650), wk =   0.0312500
        k(   24) = (   0.5982985  -1.3817111   0.0562883), wk =   0.0000000
        k(   25) = (   0.0000000   0.0000000  -0.5065949), wk =   0.0156250
        k(   26) = (  -1.1965969   0.6908556  -0.2814416), wk =   0.0000000
        k(   27) = (   0.8974477  -0.5181417   0.0844325), wk =   0.0156250
        k(   28) = (  -0.2991492   0.1727139   0.3095858), wk =   0.0000000
        k(   29) = (   0.8974477   0.5181417  -0.0844325), wk =   0.0312500
        k(   30) = (  -0.2991492   1.2089972   0.1407208), wk =   0.0000000
        k(   31) = (  -0.8974477   0.5181417  -0.0844325), wk =   0.0156250
        k(   32) = (  -2.0940446   1.2089972   0.1407208), wk =   0.0000000
        k(   33) = (  -1.7948954   1.0362833  -0.1688650), wk =   0.0156250
        k(   34) = (  -2.9914923   1.7271389   0.0562883), wk =   0.0000000
        k(   35) = (  -0.0000000  -1.0362833   0.1688650), wk =   0.0312500
        k(   36) = (  -1.1965969  -0.3454278   0.3940182), wk =   0.0000000
        k(   37) = (  -0.0000000   1.0362833  -0.1688650), wk =   0.0312500
        k(   38) = (  -1.1965969   1.7271389   0.0562883), wk =   0.0000000
        k(   39) = (   0.8974477  -0.5181417  -0.1688650), wk =   0.0156250
        k(   40) = (  -0.2991492   0.1727139   0.0562883), wk =   0.0000000
        k(   41) = (  -2.6923431   0.5181417  -0.0844325), wk =   0.0312500
        k(   42) = (  -3.8889400   1.2089972   0.1407208), wk =   0.0000000
        k(   43) = (   0.8974477  -2.5907084  -0.0844325), wk =   0.0312500
        k(   44) = (  -0.2991492  -1.8998528   0.1407208), wk =   0.0000000
        k(   45) = (  -2.6923431  -0.5181417   0.0844325), wk =   0.0312500
        k(   46) = (  -3.8889400   0.1727139   0.3095858), wk =   0.0000000
        k(   47) = (   0.8974477   2.5907084   0.0844325), wk =   0.0312500
        k(   48) = (  -0.2991492   3.2815639   0.3095858), wk =   0.0000000
        k(   49) = (   2.6923431  -0.5181417   0.0844325), wk =   0.0312500
        k(   50) = (   1.4957462   0.1727139   0.3095858), wk =   0.0000000
        k(   51) = (  -1.7948954  -0.0000000   0.0000000), wk =   0.0312500
        k(   52) = (  -2.9914923   0.6908556   0.2251533), wk =   0.0000000
        k(   53) = (   0.8974477  -1.5544250  -0.0000000), wk =   0.0312500
        k(   54) = (  -0.2991492  -0.8635695   0.2251533), wk =   0.0000000
        k(   55) = (   0.0000000   2.0725667  -0.3377299), wk =   0.0312500
        k(   56) = (  -1.1965969   2.7634222  -0.1125766), wk =   0.0000000
        k(   57) = (   0.0000000   0.0000000  -0.2532974), wk =   0.0156250
        k(   58) = (  -1.1965969   0.6908556  -0.0281442), wk =   0.0000000
        k(   59) = (  -2.6923431   1.5544250   0.0000000), wk =   0.0156250
        k(   60) = (  -3.8889400   2.2452806   0.2251533), wk =   0.0000000
        k(   61) = (  -2.6923431  -1.5544250  -0.0000000), wk =   0.0312500
        k(   62) = (  -3.8889400  -0.8635695   0.2251533), wk =   0.0000000
        k(   63) = (   2.6923431  -1.5544250  -0.0000000), wk =   0.0156250
        k(   64) = (   1.4957462  -0.8635695   0.2251533), wk =   0.0000000
        k(   65) = (  -1.7948954   1.0362833   0.0844325), wk =   0.0156250
        k(   66) = (  -2.9914923   1.7271389   0.3095858), wk =   0.0000000
        k(   67) = (  -1.7948954  -1.0362833  -0.0844325), wk =   0.0312500
        k(   68) = (  -2.9914923  -0.3454278   0.1407208), wk =   0.0000000
        k(   69) = (   1.7948954  -1.0362833  -0.0844325), wk =   0.0156250
        k(   70) = (   0.5982985  -0.3454278   0.1407208), wk =   0.0000000
        k(   71) = (   0.0000000   3.1088500  -0.2532974), wk =   0.0312500
        k(   72) = (  -1.1965969   3.7997056  -0.0281442), wk =   0.0000000
        k(   73) = (   0.0000000  -3.1088500   0.2532974), wk =   0.0312500
        k(   74) = (  -1.1965969  -2.4179945   0.4784507), wk =   0.0000000
        k(   75) = (  -2.6923431   1.5544250   0.2532974), wk =   0.0156250
        k(   76) = (  -3.8889400   2.2452806   0.4784507), wk =   0.0000000
        k(   77) = (   0.8974477   2.5907084  -0.1688650), wk =   0.0312500
        k(   78) = (  -0.2991492   3.2815639   0.0562883), wk =   0.0000000
        k(   79) = (  -2.6923431  -0.5181417  -0.1688650), wk =   0.0312500
        k(   80) = (  -3.8889400   0.1727139   0.0562883), wk =   0.0000000

     Dense  grid:    59333 G-vectors     FFT dimensions: ( 120, 120, 120)

     Estimated max dynamical RAM per process >       5.82 MB

     Estimated total dynamical RAM >       1.45 GB
     Message from routine sym_rho_init:
     some processors have no G-vectors for symmetrization
     Message from routine sym_rho_init:
     some processors have no G-vectors for symmetrization
     Message from routine sym_rho_init:
     some processors have no G-vectors for symmetrization
     Message from routine sym_rho_init:
     some processors have no G-vectors for symmetrization
     Message from routine sym_rho_init:
     some processors have no G-vectors for symmetrization
     Message from routine sym_rho_init:
     some processors have no G-vectors for symmetrization
     Message from routine sym_rho_init:
     some processors have no G-vectors for symmetrization
     Message from routine sym_rho_init:
     some processors have no G-vectors for symmetrization
     Message from routine sym_rho_init:
     some processors have no G-vectors for symmetrization
     Message from routine sym_rho_init:
     some processors have no G-vectors for symmetrization
     Message from routine sym_rho_init:
     some processors have no G-vectors for symmetrization
     Message from routine sym_rho_init:
     some processors have no G-vectors for symmetrization
     Message from routine sym_rho_init:
     some processors have no G-vectors for symmetrization
     Message from routine sym_rho_init:
     some processors have no G-vectors for symmetrization
     Message from routine sym_rho_init:
     some processors have no G-vectors for symmetrization
     Message from routine sym_rho_init:
     some processors have no G-vectors for symmetrization
     Message from routine sym_rho_init:
     some processors have no G-vectors for symmetrization
     Message from routine sym_rho_init:
     some processors have no G-vectors for symmetrization
     Message from routine sym_rho_init:
     some processors have no G-vectors for symmetrization
     Message from routine sym_rho_init:
     some processors have no G-vectors for symmetrization
     Message from routine sym_rho_init:
     some processors have no G-vectors for symmetrization
     Message from routine sym_rho_init:
     some processors have no G-vectors for symmetrization
     Message from routine sym_rho_init:
     some processors have no G-vectors for symmetrization
     Message from routine sym_rho_init:
     some processors have no G-vectors for symmetrization
     Message from routine sym_rho_init:
     some processors have no G-vectors for symmetrization
     Message from routine sym_rho_init:
     some processors have no G-vectors for symmetrization
     Message from routine sym_rho_init:
     some processors have no G-vectors for symmetrization
     Message from routine sym_rho_init:
     some processors have no G-vectors for symmetrization
     Message from routine sym_rho_init:
     some processors have no G-vectors for symmetrization
     Message from routine sym_rho_init:
     some processors have no G-vectors for symmetrization
     Message from routine sym_rho_init:
     some processors have no G-vectors for symmetrization
     Message from routine sym_rho_init:
     some processors have no G-vectors for symmetrization
     Message from routine sym_rho_init:
     some processors have no G-vectors for symmetrization
     Message from routine sym_rho_init:
     some processors have no G-vectors for symmetrization
     Message from routine sym_rho_init:
     some processors have no G-vectors for symmetrization
     Message from routine sym_rho_init:
     some processors have no G-vectors for symmetrization
     Message from routine sym_rho_init:
     some processors have no G-vectors for symmetrization
     Message from routine sym_rho_init:
     some processors have no G-vectors for symmetrization
     Message from routine sym_rho_init:
     some processors have no G-vectors for symmetrization
     Message from routine sym_rho_init:
     some processors have no G-vectors for symmetrization
     Message from routine sym_rho_init:
     some processors have no G-vectors for symmetrization
     Message from routine sym_rho_init:
     some processors have no G-vectors for symmetrization
     Message from routine sym_rho_init:
     some processors have no G-vectors for symmetrization
     Message from routine sym_rho_init:
     some processors have no G-vectors for symmetrization
     Message from routine sym_rho_init:
     some processors have no G-vectors for symmetrization
     Message from routine sym_rho_init:
     some processors have no G-vectors for symmetrization
     Message from routine sym_rho_init:
     some processors have no G-vectors for symmetrization
     Message from routine sym_rho_init:
     some processors have no G-vectors for symmetrization
     Message from routine sym_rho_init:
     some processors have no G-vectors for symmetrization
     Message from routine sym_rho_init:
     some processors have no G-vectors for symmetrization
     Message from routine sym_rho_init:
     some processors have no G-vectors for symmetrization
     Message from routine sym_rho_init:
     some processors have no G-vectors for symmetrization
     Message from routine sym_rho_init:
     some processors have no G-vectors for symmetrization
     Message from routine sym_rho_init:
     some processors have no G-vectors for symmetrization
     Message from routine sym_rho_init:
     some processors have no G-vectors for symmetrization
     Message from routine sym_rho_init:
     some processors have no G-vectors for symmetrization
     Message from routine sym_rho_init:
     some processors have no G-vectors for symmetrization
     Message from routine sym_rho_init:
     some processors have no G-vectors for symmetrization
     Message from routine sym_rho_init:
     some processors have no G-vectors for symmetrization
     Message from routine sym_rho_init:
     some processors have no G-vectors for symmetrization
     Message from routine sym_rho_init:
     some processors have no G-vectors for symmetrization
     Message from routine sym_rho_init:
     some processors have no G-vectors for symmetrization
     Message from routine sym_rho_init:
     some processors have no G-vectors for symmetrization
     Message from routine sym_rho_init:
     some processors have no G-vectors for symmetrization
     Message from routine sym_rho_init:
     some processors have no G-vectors for symmetrization
     Message from routine sym_rho_init:
     some processors have no G-vectors for symmetrization
     Message from routine sym_rho_init:
     some processors have no G-vectors for symmetrization
     Message from routine sym_rho_init:
     some processors have no G-vectors for symmetrization
     Message from routine sym_rho_init:
     some processors have no G-vectors for symmetrization
     Message from routine sym_rho_init:
     some processors have no G-vectors for symmetrization
     Message from routine sym_rho_init:
     some processors have no G-vectors for symmetrization
     Message from routine sym_rho_init:
     some processors have no G-vectors for symmetrization
     Message from routine sym_rho_init:
     some processors have no G-vectors for symmetrization
     Message from routine sym_rho_init:
     some processors have no G-vectors for symmetrization
     Message from routine sym_rho_init:
     some processors have no G-vectors for symmetrization
     Message from routine sym_rho_init:
     some processors have no G-vectors for symmetrization
     Message from routine sym_rho_init:
     some processors have no G-vectors for symmetrization
     Message from routine sym_rho_init:
     some processors have no G-vectors for symmetrization
     Message from routine sym_rho_init:
     some processors have no G-vectors for symmetrization
     Message from routine sym_rho_init:
     some processors have no G-vectors for symmetrization
     Message from routine sym_rho_init:
     some processors have no G-vectors for symmetrization
     Message from routine sym_rho_init:
     some processors have no G-vectors for symmetrization
     Message from routine sym_rho_init:
     some processors have no G-vectors for symmetrization
     Message from routine sym_rho_init:
     some processors have no G-vectors for symmetrization
     Message from routine sym_rho_init:
     some processors have no G-vectors for symmetrization
     Message from routine sym_rho_init:
     some processors have no G-vectors for symmetrization
     Message from routine sym_rho_init:
     some processors have no G-vectors for symmetrization
     Message from routine sym_rho_init:
     some processors have no G-vectors for symmetrization
     Message from routine sym_rho_init:
     some processors have no G-vectors for symmetrization
     Message from routine sym_rho_init:
     some processors have no G-vectors for symmetrization
     Message from routine sym_rho_init:
     some processors have no G-vectors for symmetrization
     Message from routine sym_rho_init:
     some processors have no G-vectors for symmetrization
     Message from routine sym_rho_init:
     some processors have no G-vectors for symmetrization
     Message from routine sym_rho_init:
     some processors have no G-vectors for symmetrization
     Message from routine sym_rho_init:
     some processors have no G-vectors for symmetrization
     Message from routine sym_rho_init:
     some processors have no G-vectors for symmetrization
     Message from routine sym_rho_init:
     some processors have no G-vectors for symmetrization
     Message from routine sym_rho_init:
     some processors have no G-vectors for symmetrization
     Message from routine sym_rho_init:
     some processors have no G-vectors for symmetrization

     Check: negative core charge=   -0.000024

     The potential is recalculated from file :
     ./tmp/HP/NiI2.save/charge-density


     STARTING HUBBARD OCCUPATIONS:

     =================== HUBBARD OCCUPATIONS ===================
     ------------------------ ATOM    1 ------------------------
     Tr[ns(  1)] (up, down, total) =   4.97063  3.62211  8.59274
     Atomic magnetic moment for atom   1 =   1.34853
     SPIN  1
     eigenvalues:
       0.993  0.993  0.994  0.995  0.995
     eigenvectors (columns):
      -0.000  0.000 -1.000  0.000 -0.000
       0.225  0.377 -0.000  0.763 -0.475
       0.377 -0.225 -0.000 -0.475 -0.763
       0.772 -0.461 -0.000  0.232  0.372
       0.461  0.772 -0.000 -0.372  0.232
     occupation matrix ns (before diag.):
       0.994  0.000  0.000  0.000  0.000
       0.000  0.995  0.000 -0.000 -0.001
       0.000  0.000  0.995 -0.001  0.000
       0.000 -0.000 -0.001  0.994 -0.000
       0.000 -0.001  0.000 -0.000  0.994
     SPIN  2
     eigenvalues:
       0.328  0.328  0.989  0.989  0.989
     eigenvectors (columns):
       0.000  0.000 -0.000  0.000  1.000
      -0.170  0.802  0.328  0.469  0.000
       0.802  0.170  0.469 -0.328  0.000
      -0.560 -0.119  0.672 -0.470  0.000
       0.119 -0.560  0.470  0.672  0.000
     occupation matrix ns (before diag.):
       0.989  0.000  0.000  0.000  0.000
       0.000  0.544  0.000 -0.000  0.310
       0.000  0.000  0.544  0.310  0.000
       0.000 -0.000  0.310  0.772 -0.000
       0.000  0.310  0.000 -0.000  0.772
     ------------------------ ATOM    2 ------------------------
     Tr[ns(  2)] (up, down, total) =   3.62211  4.97063  8.59274
     Atomic magnetic moment for atom   2 =  -1.34853
     SPIN  1
     eigenvalues:
       0.328  0.328  0.989  0.989  0.989
     eigenvectors (columns):
       0.000  0.000 -0.000  0.000  1.000
      -0.166  0.803  0.328  0.469  0.000
       0.803  0.166  0.469 -0.328  0.000
      -0.561 -0.116  0.672 -0.470  0.000
       0.116 -0.561  0.470  0.672  0.000
     occupation matrix ns (before diag.):
       0.989  0.000  0.000  0.000  0.000
       0.000  0.544  0.000 -0.000  0.310
       0.000  0.000  0.544  0.310  0.000
       0.000 -0.000  0.310  0.772 -0.000
       0.000  0.310  0.000 -0.000  0.772
     SPIN  2
     eigenvalues:
       0.993  0.993  0.994  0.995  0.995
     eigenvectors (columns):
      -0.000  0.000 -1.000  0.000 -0.000
       0.225  0.377 -0.000  0.763 -0.474
       0.377 -0.225 -0.000 -0.474 -0.763
       0.772 -0.461 -0.000  0.231  0.373
       0.461  0.772 -0.000 -0.373  0.231
     occupation matrix ns (before diag.):
       0.994  0.000  0.000  0.000  0.000
       0.000  0.995  0.000 -0.000 -0.001
       0.000  0.000  0.995 -0.001  0.000
       0.000 -0.000 -0.001  0.994 -0.000
       0.000 -0.001  0.000 -0.000  0.994

     Number of occupied Hubbard levels =   17.1855

     Atomic wfc used for Hubbard projectors are orthogonalized

     Starting wfcs are   36 atomic wfcs

     Band Structure Calculation
     Davidson diagonalization with overlap

     ethr =  1.00E-11,  avg # of iterations = 18.6

     total cpu time spent up to now is       -1.0 secs

     End of band structure calculation

     Number of k-points >= 100: set verbosity='high' to print the bands.

     highest occupied level (ev):     4.9309

     Writing all to output data dir ./tmp/HP/NiI2.save/ :
     XML data file, pseudopotentials, collected wavefunctions
     Done!

                   WRITING LINEAR-RESPONSE SUMMARY:




     Number of symmetries in the small group of q, nsymq =  2

     G cutoff = 3575.4600  (    233 G-vectors)     FFT grid: (120,120,120)

     Number of k (and k+q if q/=0) points =   160


     Atomic wfc used for the projector on the Hubbard manifold are orthogonalized

     Total time spent up to now is:
     HP           :  17m47.48s CPU  18m37.36s WALL

      =--------------------------------------------=
                 SOLVE THE LINEAR SYSTEM
      =--------------------------------------------=

      atom #  1   q point #   3   iter #   1
      chi:   1  -0.2912643723
      chi:   2  -0.0001473994
      Average number of iter. to solve lin. system:   51.0
      Total CPU time :  1210.7 s

      atom #  1   q point #   3   iter #   2
      chi:   1   0.0938562576   residue:    0.3851206298
      chi:   2   0.0001033712   residue:    0.0002507706
      Average number of iter. to solve lin. system:   27.2
      Total CPU time :  1263.8 s

      atom #  1   q point #   3   iter #   3
      chi:   1  -0.0908451880   residue:    0.1847014455
      chi:   2   0.0000641375   residue:    0.0000392336
      Average number of iter. to solve lin. system:   25.3
      Total CPU time :  1313.8 s

      atom #  1   q point #   3   iter #   4
      chi:   1  -0.1101996216   residue:    0.0193544336
      chi:   2   0.0002298900   residue:    0.0001657525
      Average number of iter. to solve lin. system:   26.8
      Total CPU time :  1366.4 s

      atom #  1   q point #   3   iter #   5
      chi:   1  -0.1111153285   residue:    0.0009157069
      chi:   2  -0.0003944569   residue:    0.0006243469
      Average number of iter. to solve lin. system:   28.3
      Total CPU time :  1421.3 s

      atom #  1   q point #   3   iter #   6
      chi:   1  -0.1112072711   residue:    0.0000919426
      chi:   2   0.0004841109   residue:    0.0008785677
      Average number of iter. to solve lin. system:   28.1
      Total CPU time :  1477.2 s

      atom #  1   q point #   3   iter #   7
      chi:   1  -0.1112935825   residue:    0.0000863113
      chi:   2  -0.0001905225   residue:    0.0006746334
      Average number of iter. to solve lin. system:   28.5
      Total CPU time :  1532.6 s

      atom #  1   q point #   3   iter #   8
      chi:   1  -0.1114154034   residue:    0.0001218209
      chi:   2   0.0001608745   residue:    0.0003513970
      Average number of iter. to solve lin. system:   29.4
      Total CPU time :  1590.0 s

      atom #  1   q point #   3   iter #   9
      chi:   1  -0.1116256559   residue:    0.0002102526
      chi:   2  -0.0000126017   residue:    0.0001734762
      Average number of iter. to solve lin. system:   29.8
      Total CPU time :  1647.6 s

      atom #  1   q point #   3   iter #  10
      chi:   1  -0.1117044264   residue:    0.0000787705
      chi:   2   0.0000396104   residue:    0.0000522121
      Average number of iter. to solve lin. system:   30.2
      Total CPU time :  1706.2 s

      atom #  1   q point #   3   iter #  11
      chi:   1  -0.1117242085   residue:    0.0000197821
      chi:   2   0.0000280773   residue:    0.0000115332
      Average number of iter. to solve lin. system:   29.5
      Total CPU time :  1763.5 s

      atom #  1   q point #   3   iter #  12
      chi:   1  -0.1117160059   residue:    0.0000082026
      chi:   2   0.0000315676   residue:    0.0000034903
      Average number of iter. to solve lin. system:   30.1
      Total CPU time :  1821.6 s
      
      =--------------------------------------------=
             CONVERGENCE HAS BEEN REACHED
      =--------------------------------------------=


     =-------------------------------------------------------------=

     Calculation for q #   4 = (   1.1965969   2.0725667   0.0000000 )

     =-------------------------------------------------------------=

     Performing NSCF calculation at all points k and k+q...

     Parallelization info
     --------------------
     sticks:   dense  smooth     PW     G-vecs:    dense   smooth      PW
     Min          12      12      4                  230      230      46
     Max          13      13      5                  233      233      49
     Sum        3099    3099   1069                59333    59333   12099

     Using Pencil Decomposition



     bravais-lattice index     =            5
     lattice parameter (alat)  =      26.8360  a.u.
     unit-cell volume          =    1281.9023 (a.u.)^3
     number of atoms/cell      =            6
     number of atomic types    =            3
     number of electrons       =        64.00 (up:  32.00, down:  32.00)
     number of Kohn-Sham states=           32
     kinetic-energy cutoff     =      49.0000  Ry
     charge density cutoff     =     196.0000  Ry
     Exchange-correlation= PBESOL
                           (   1   4  10   8   0   0   0)
     Hubbard projectors: ortho-atomic
     Hubbard parameters of DFT+U (Dudarev formulation) in eV:
     U(Ni1-3d) =  5.5187
     U(Ni2-3d) =  5.5187

     Internal variables: lda_plus_u =T, lda_plus_u_kind = 0

     Internal variables: orbital_resolved =F, hub_pot_fix =F, apply_U = F

     celldm(1)=  26.836001  celldm(2)=   0.000000  celldm(3)=   0.000000
     celldm(4)=   0.961200  celldm(5)=   0.000000  celldm(6)=   0.000000

     crystal axes: (cart. coord. in units of alat)
               a(1) = (   0.139284  -0.080416   0.986982 )  
               a(2) = (   0.000000   0.160831   0.986982 )  
               a(3) = (  -0.139284  -0.080416   0.986982 )  

     reciprocal axes: (cart. coord. in units 2 pi/alat)
               b(1) = (  3.589791 -2.072567  0.337730 )  
               b(2) = (  0.000000  4.145133  0.337730 )  
               b(3) = ( -3.589791 -2.072567  0.337730 )  


     PseudoPot. # 1 for Ni read from file:
     ./Pseudos/Ni_pbesol.upf
     MD5 check sum: 3ec56ad6bf78c9cc1bbec815420e1c7d
     Pseudo is Norm-conserving + core correction, Zval = 18.0
     Generated using ONCVPSP code by D. R. Hamann
     Using radial grid of 1356 points,  6 beta functions with: 
                l(1) =   0
                l(2) =   0
                l(3) =   1
                l(4) =   1
                l(5) =   2
                l(6) =   2

     PseudoPot. # 2 for Ni read from file:
     ./Pseudos/Ni_pbesol.upf
     MD5 check sum: 3ec56ad6bf78c9cc1bbec815420e1c7d
     Pseudo is Norm-conserving + core correction, Zval = 18.0
     Generated using ONCVPSP code by D. R. Hamann
     Using radial grid of 1356 points,  6 beta functions with: 
                l(1) =   0
                l(2) =   0
                l(3) =   1
                l(4) =   1
                l(5) =   2
                l(6) =   2

     PseudoPot. # 3 for I  read from file:
     ./Pseudos/I_pbesol.upf
     MD5 check sum: 80ed5ceb2eb9c553cfb6760a299d9c5b
     Pseudo is Norm-conserving + core correction, Zval =  7.0
     Generated using ONCVPSP code by D. R. Hamann
     Using radial grid of 1182 points,  6 beta functions with: 
                l(1) =   0
                l(2) =   0
                l(3) =   1
                l(4) =   1
                l(5) =   2
                l(6) =   2

     atomic species   valence    mass     pseudopotential
     Ni1              18.00    58.69340     Ni( 1.00)
     Ni2              18.00    58.69340     Ni( 1.00)
     I                 7.00   126.90447     I ( 1.00)

     Starting magnetic structure 
     atomic species   magnetization
     Ni1             0.600
     Ni2            -0.600
     I               0.000

     12 Sym. Ops., with inversion, found



   Cartesian axes

     site n.     atom                  positions (alat units)
         1        Ni1    tau(   1) = (   0.0000000   0.0000000   0.0000000  )
         2        Ni2    tau(   2) = (   0.1392839   0.0804156   0.4934910  )
         3        I      tau(   3) = (  -0.0000000  -0.0000000   0.3856062  )
         4        I      tau(   4) = (   0.1392839   0.0804156   0.8790972  )
         5        I      tau(   5) = (   0.1392839   0.0804156   0.1078847  )
         6        I      tau(   6) = (   0.1392839  -0.0804156   0.6013757  )

     number of k points=    72
                       cart. coord. in units 2pi/alat
        k(    1) = (   0.0000000   0.0000000   0.0000000), wk =   0.0156250
        k(    2) = (   1.1965969   2.0725667   0.0000000), wk =   0.0000000
        k(    3) = (  -0.8974477  -0.5181417   0.0844325), wk =   0.0312500
        k(    4) = (   0.2991492   1.5544250   0.0844325), wk =   0.0000000
        k(    5) = (   1.7948954   1.0362833  -0.1688650), wk =   0.0312500
        k(    6) = (   2.9914923   3.1088500  -0.1688650), wk =   0.0000000
        k(    7) = (  -0.8974477   0.5181417   0.1688650), wk =   0.0312500
        k(    8) = (   0.2991492   2.5907084   0.1688650), wk =   0.0000000
        k(    9) = (   1.7948954   2.0725667  -0.0844325), wk =   0.0312500
        k(   10) = (   2.9914923   4.1451334  -0.0844325), wk =   0.0000000
        k(   11) = (   0.8974477   1.5544250   0.0000000), wk =   0.0156250
        k(   12) = (   2.0940446   3.6269917   0.0000000), wk =   0.0000000
        k(   13) = (   1.7948954  -1.0362833  -0.3377299), wk =   0.0156250
        k(   14) = (   2.9914923   1.0362833  -0.3377299), wk =   0.0000000
        k(   15) = (   0.0000000   0.0000000   0.2532974), wk =   0.0312500
        k(   16) = (   1.1965969   2.0725667   0.2532974), wk =   0.0000000
        k(   17) = (   2.6923431   1.5544250   0.0000000), wk =   0.0312500
        k(   18) = (   3.8889400   3.6269917   0.0000000), wk =   0.0000000
        k(   19) = (   1.7948954   1.0362833   0.0844325), wk =   0.0312500
        k(   20) = (   2.9914923   3.1088500   0.0844325), wk =   0.0000000
        k(   21) = (   2.6923431  -1.5544250  -0.2532974), wk =   0.0312500
        k(   22) = (   3.8889400   0.5181417  -0.2532974), wk =   0.0000000
        k(   23) = (   1.7948954  -2.0725667  -0.1688650), wk =   0.0312500
        k(   24) = (   2.9914923   0.0000000  -0.1688650), wk =   0.0000000
        k(   25) = (   0.0000000   0.0000000  -0.5065949), wk =   0.0156250
        k(   26) = (   1.1965969   2.0725667  -0.5065949), wk =   0.0000000
        k(   27) = (   0.8974477  -0.5181417   0.0844325), wk =   0.0312500
        k(   28) = (   2.0940446   1.5544250   0.0844325), wk =   0.0000000
        k(   29) = (  -0.0000000   1.0362833   0.0844325), wk =   0.0312500
        k(   30) = (   1.1965969   3.1088500   0.0844325), wk =   0.0000000
        k(   31) = (  -1.7948954   1.0362833  -0.1688650), wk =   0.0156250
        k(   32) = (  -0.5982985   3.1088500  -0.1688650), wk =   0.0000000
        k(   33) = (  -0.0000000  -1.0362833   0.1688650), wk =   0.0312500
        k(   34) = (   1.1965969   1.0362833   0.1688650), wk =   0.0000000
        k(   35) = (   0.8974477   0.5181417   0.1688650), wk =   0.0312500
        k(   36) = (   2.0940446   2.5907084   0.1688650), wk =   0.0000000
        k(   37) = (  -2.6923431   0.5181417  -0.0844325), wk =   0.0312500
        k(   38) = (  -1.4957462   2.5907084  -0.0844325), wk =   0.0000000
        k(   39) = (   0.8974477  -2.5907084  -0.0844325), wk =   0.0312500
        k(   40) = (   2.0940446  -0.5181417  -0.0844325), wk =   0.0000000
        k(   41) = (  -0.8974477  -2.5907084  -0.0844325), wk =   0.0312500
        k(   42) = (   0.2991492  -0.5181417  -0.0844325), wk =   0.0000000
        k(   43) = (  -1.7948954   2.0725667  -0.0844325), wk =   0.0312500
        k(   44) = (  -0.5982985   4.1451334  -0.0844325), wk =   0.0000000
        k(   45) = (  -0.8974477   2.5907084   0.0844325), wk =   0.0312500
        k(   46) = (   0.2991492   4.6632750   0.0844325), wk =   0.0000000
        k(   47) = (  -1.7948954  -0.0000000   0.0000000), wk =   0.0312500
        k(   48) = (  -0.5982985   2.0725667   0.0000000), wk =   0.0000000
        k(   49) = (  -0.8974477  -1.5544250  -0.0000000), wk =   0.0156250
        k(   50) = (   0.2991492   0.5181417   0.0000000), wk =   0.0000000
        k(   51) = (  -0.8974477   1.5544250   0.0000000), wk =   0.0312500
        k(   52) = (   0.2991492   3.6269917   0.0000000), wk =   0.0000000
        k(   53) = (   0.0000000   2.0725667  -0.3377299), wk =   0.0312500
        k(   54) = (   1.1965969   4.1451334  -0.3377299), wk =   0.0000000
        k(   55) = (  -2.6923431   1.5544250   0.0000000), wk =   0.0312500
        k(   56) = (  -1.4957462   3.6269917   0.0000000), wk =   0.0000000
        k(   57) = (   0.0000000  -3.1088500  -0.0000000), wk =   0.0312500
        k(   58) = (   1.1965969  -1.0362833  -0.0000000), wk =   0.0000000
        k(   59) = (  -1.7948954   1.0362833   0.0844325), wk =   0.0312500
        k(   60) = (  -0.5982985   3.1088500   0.0844325), wk =   0.0000000
        k(   61) = (   0.0000000  -2.0725667   0.0844325), wk =   0.0312500
        k(   62) = (   1.1965969   0.0000000   0.0844325), wk =   0.0000000
        k(   63) = (   0.0000000   3.1088500  -0.2532974), wk =   0.0312500
        k(   64) = (   1.1965969   5.1814167  -0.2532974), wk =   0.0000000
        k(   65) = (  -2.6923431  -1.5544250  -0.2532974), wk =   0.0312500
        k(   66) = (  -1.4957462   0.5181417  -0.2532974), wk =   0.0000000
        k(   67) = (  -2.6923431  -0.5181417  -0.1688650), wk =   0.0156250
        k(   68) = (  -1.4957462   1.5544250  -0.1688650), wk =   0.0000000
        k(   69) = (   2.6923431  -0.5181417  -0.1688650), wk =   0.0312500
        k(   70) = (   3.8889400   1.5544250  -0.1688650), wk =   0.0000000
        k(   71) = (   2.6923431   0.5181417   0.1688650), wk =   0.0156250
        k(   72) = (   3.8889400   2.5907084   0.1688650), wk =   0.0000000

     Dense  grid:    59333 G-vectors     FFT dimensions: ( 120, 120, 120)

     Estimated max dynamical RAM per process >       5.88 MB

     Estimated total dynamical RAM >       1.47 GB
     Message from routine sym_rho_init:
     some processors have no G-vectors for symmetrization
     Message from routine sym_rho_init:
     some processors have no G-vectors for symmetrization
     Message from routine sym_rho_init:
     some processors have no G-vectors for symmetrization
     Message from routine sym_rho_init:
     some processors have no G-vectors for symmetrization
     Message from routine sym_rho_init:
     some processors have no G-vectors for symmetrization
     Message from routine sym_rho_init:
     some processors have no G-vectors for symmetrization
[...]
     some processors have no G-vectors for symmetrization
     Message from routine sym_rho_init:
     some processors have no G-vectors for symmetrization
     Message from routine sym_rho_init:
     some processors have no G-vectors for symmetrization
     Message from routine sym_rho_init:
     some processors have no G-vectors for symmetrization
     Message from routine sym_rho_init:
     some processors have no G-vectors for symmetrization
     Message from routine sym_rho_init:
     some processors have no G-vectors for symmetrization
     Message from routine sym_rho_init:
     some processors have no G-vectors for symmetrization
     Message from routine sym_rho_init:
     some processors have no G-vectors for symmetrization
     Message from routine sym_rho_init:
     some processors have no G-vectors for symmetrization
     Message from routine sym_rho_init:
     some processors have no G-vectors for symmetrization
     Message from routine sym_rho_init:
     some processors have no G-vectors for symmetrization
     Message from routine sym_rho_init:
     some processors have no G-vectors for symmetrization
     Message from routine sym_rho_init:
     some processors have no G-vectors for symmetrization
     Message from routine sym_rho_init:
     some processors have no G-vectors for symmetrization
     Message from routine sym_rho_init:
     some processors have no G-vectors for symmetrization
     Message from routine sym_rho_init:
     some processors have no G-vectors for symmetrization
     Message from routine sym_rho_init:
     some processors have no G-vectors for symmetrization
     Message from routine sym_rho_init:
     some processors have no G-vectors for symmetrization
     Message from routine sym_rho_init:
     some processors have no G-vectors for symmetrization
     Message from routine sym_rho_init:
     some processors have no G-vectors for symmetrization
     Message from routine sym_rho_init:
     some processors have no G-vectors for symmetrization
     Message from routine sym_rho_init:
     some processors have no G-vectors for symmetrization
     Message from routine sym_rho_init:
     some processors have no G-vectors for symmetrization
     Message from routine sym_rho_init:
     some processors have no G-vectors for symmetrization
     Message from routine sym_rho_init:
     some processors have no G-vectors for symmetrization
     Message from routine sym_rho_init:
     some processors have no G-vectors for symmetrization
     Message from routine sym_rho_init:
     some processors have no G-vectors for symmetrization
     Message from routine sym_rho_init:
     some processors have no G-vectors for symmetrization
     Message from routine sym_rho_init:
     some processors have no G-vectors for symmetrization
     Message from routine sym_rho_init:
     some processors have no G-vectors for symmetrization
     Message from routine sym_rho_init:
     some processors have no G-vectors for symmetrization
     Message from routine sym_rho_init:
     some processors have no G-vectors for symmetrization
     Message from routine sym_rho_init:
     some processors have no G-vectors for symmetrization
     Message from routine sym_rho_init:
     some processors have no G-vectors for symmetrization
     Message from routine sym_rho_init:
     some processors have no G-vectors for symmetrization
     Message from routine sym_rho_init:
     some processors have no G-vectors for symmetrization
     Message from routine sym_rho_init:
     some processors have no G-vectors for symmetrization
     Message from routine sym_rho_init:
     some processors have no G-vectors for symmetrization
     Message from routine sym_rho_init:
     some processors have no G-vectors for symmetrization
     Message from routine sym_rho_init:
     some processors have no G-vectors for symmetrization
     Message from routine sym_rho_init:
     some processors have no G-vectors for symmetrization
     Message from routine sym_rho_init:
     some processors have no G-vectors for symmetrization
     Message from routine sym_rho_init:
     some processors have no G-vectors for symmetrization
     Message from routine sym_rho_init:
     some processors have no G-vectors for symmetrization
     Message from routine sym_rho_init:
     some processors have no G-vectors for symmetrization
     Message from routine sym_rho_init:
     some processors have no G-vectors for symmetrization
     Message from routine sym_rho_init:
     some processors have no G-vectors for symmetrization
     Message from routine sym_rho_init:
     some processors have no G-vectors for symmetrization
     Message from routine sym_rho_init:
     some processors have no G-vectors for symmetrization
     Message from routine sym_rho_init:
     some processors have no G-vectors for symmetrization
     Message from routine sym_rho_init:
     some processors have no G-vectors for symmetrization
     Message from routine sym_rho_init:
     some processors have no G-vectors for symmetrization
     Message from routine sym_rho_init:
     some processors have no G-vectors for symmetrization
     Message from routine sym_rho_init:
     some processors have no G-vectors for symmetrization
     Message from routine sym_rho_init:
     some processors have no G-vectors for symmetrization
     Message from routine sym_rho_init:
     some processors have no G-vectors for symmetrization
     Message from routine sym_rho_init:
     some processors have no G-vectors for symmetrization
     Message from routine sym_rho_init:
     some processors have no G-vectors for symmetrization
     Message from routine sym_rho_init:
     some processors have no G-vectors for symmetrization

     Check: negative core charge=   -0.000024

     The potential is recalculated from file :
     ./tmp/HP/NiI2.save/charge-density


     STARTING HUBBARD OCCUPATIONS:

     =================== HUBBARD OCCUPATIONS ===================
     ------------------------ ATOM    1 ------------------------
     Tr[ns(  1)] (up, down, total) =   4.97063  3.62211  8.59274
     Atomic magnetic moment for atom   1 =   1.34853
     SPIN  1
     eigenvalues:
       0.993  0.993  0.994  0.995  0.995
     eigenvectors (columns):
      -0.000  0.000 -1.000  0.000 -0.000
       0.225  0.377 -0.000  0.763 -0.475
       0.377 -0.225 -0.000 -0.475 -0.763
       0.772 -0.461 -0.000  0.232  0.372
       0.461  0.772 -0.000 -0.372  0.232
     occupation matrix ns (before diag.):
       0.994  0.000  0.000  0.000  0.000
       0.000  0.995  0.000 -0.000 -0.001
       0.000  0.000  0.995 -0.001  0.000
       0.000 -0.000 -0.001  0.994 -0.000
       0.000 -0.001  0.000 -0.000  0.994
     SPIN  2
     eigenvalues:
       0.328  0.328  0.989  0.989  0.989
     eigenvectors (columns):
       0.000  0.000 -0.000  0.000  1.000
      -0.170  0.802  0.328  0.469  0.000
       0.802  0.170  0.469 -0.328  0.000
      -0.560 -0.119  0.672 -0.470  0.000
       0.119 -0.560  0.470  0.672  0.000
     occupation matrix ns (before diag.):
       0.989  0.000  0.000  0.000  0.000
       0.000  0.544  0.000 -0.000  0.310
       0.000  0.000  0.544  0.310  0.000
       0.000 -0.000  0.310  0.772 -0.000
       0.000  0.310  0.000 -0.000  0.772
     ------------------------ ATOM    2 ------------------------
     Tr[ns(  2)] (up, down, total) =   3.62211  4.97063  8.59274
     Atomic magnetic moment for atom   2 =  -1.34853
     SPIN  1
     eigenvalues:
       0.328  0.328  0.989  0.989  0.989
     eigenvectors (columns):
       0.000  0.000 -0.000  0.000  1.000
      -0.166  0.803  0.328  0.469  0.000
       0.803  0.166  0.469 -0.328  0.000
      -0.561 -0.116  0.672 -0.470  0.000
       0.116 -0.561  0.470  0.672  0.000
     occupation matrix ns (before diag.):
       0.989  0.000  0.000  0.000  0.000
       0.000  0.544  0.000 -0.000  0.310
       0.000  0.000  0.544  0.310  0.000
       0.000 -0.000  0.310  0.772 -0.000
       0.000  0.310  0.000 -0.000  0.772
     SPIN  2
     eigenvalues:
       0.993  0.993  0.994  0.995  0.995
     eigenvectors (columns):
      -0.000  0.000 -1.000  0.000 -0.000
       0.225  0.377 -0.000  0.763 -0.474
       0.377 -0.225 -0.000 -0.474 -0.763
       0.772 -0.461 -0.000  0.231  0.373
       0.461  0.772 -0.000 -0.373  0.231
     occupation matrix ns (before diag.):
       0.994  0.000  0.000  0.000  0.000
       0.000  0.995  0.000 -0.000 -0.001
       0.000  0.000  0.995 -0.001  0.000
       0.000 -0.000 -0.001  0.994 -0.000
       0.000 -0.001  0.000 -0.000  0.994

     Number of occupied Hubbard levels =   17.1855

     Atomic wfc used for Hubbard projectors are orthogonalized

     Starting wfcs are   36 atomic wfcs

     Band Structure Calculation
     Davidson diagonalization with overlap

     ethr =  1.00E-11,  avg # of iterations = 18.6

     total cpu time spent up to now is       -1.0 secs

     End of band structure calculation

     Number of k-points >= 100: set verbosity='high' to print the bands.

     highest occupied level (ev):     4.9309

     Writing all to output data dir ./tmp/HP/NiI2.save/ :
     XML data file, pseudopotentials, collected wavefunctions
     Done!

                   WRITING LINEAR-RESPONSE SUMMARY:




     Number of symmetries in the small group of q, nsymq =  2

     G cutoff = 3575.4600  (    233 G-vectors)     FFT grid: (120,120,120)

     Number of k (and k+q if q/=0) points =   160


     Atomic wfc used for the projector on the Hubbard manifold are orthogonalized

     Total time spent up to now is:
     HP           :  46m27.78s CPU  48m13.18s WALL

      =--------------------------------------------=
                 SOLVE THE LINEAR SYSTEM
      =--------------------------------------------=

      atom #  1   q point #   6   iter #   1
      chi:   1  -0.2912783865
      chi:   2   0.0000763410
      Average number of iter. to solve lin. system:   51.0
      Total CPU time :  2987.2 s

      atom #  1   q point #   6   iter #   2
      chi:   1   0.0938375014   residue:    0.3851158879
      chi:   2   0.0007943870   residue:    0.0007180460
      Average number of iter. to solve lin. system:   27.1
      Total CPU time :  3040.5 s

      atom #  1   q point #   6   iter #   3
      chi:   1  -0.0908284487   residue:    0.1846659501
      chi:   2  -0.0011494677   residue:    0.0019438547
      Average number of iter. to solve lin. system:   25.3
      Total CPU time :  3090.5 s

      atom #  1   q point #   6   iter #   4
      chi:   1  -0.1098838149   residue:    0.0190553662
      chi:   2   0.0014735573   residue:    0.0026230250
      Average number of iter. to solve lin. system:   27.2
      Total CPU time :  3144.1 s

      atom #  1   q point #   6   iter #   5
      chi:   1  -0.1109526701   residue:    0.0010688553
      chi:   2  -0.0010636120   residue:    0.0025371693
      Average number of iter. to solve lin. system:   28.6
      Total CPU time :  3199.9 s

      atom #  1   q point #   6   iter #   6
      chi:   1  -0.1112095824   residue:    0.0002569122
      chi:   2   0.0002623651   residue:    0.0013259771
      Average number of iter. to solve lin. system:   28.4
      Total CPU time :  3255.4 s

      atom #  1   q point #   6   iter #   7
      chi:   1  -0.1112934640   residue:    0.0000838817
      chi:   2  -0.0001218375   residue:    0.0003842027
      Average number of iter. to solve lin. system:   28.2
      Total CPU time :  3310.4 s

      atom #  1   q point #   6   iter #   8
      chi:   1  -0.1114266475   residue:    0.0001331835
      chi:   2   0.0000781963   residue:    0.0002000338
      Average number of iter. to solve lin. system:   29.4
      Total CPU time :  3367.8 s

      atom #  1   q point #   6   iter #   9
      chi:   1  -0.1116550104   residue:    0.0002283629
      chi:   2  -0.0000550441   residue:    0.0001332404
      Average number of iter. to solve lin. system:   29.7
      Total CPU time :  3425.3 s

      atom #  1   q point #   6   iter #  10
      chi:   1  -0.1117089368   residue:    0.0000539264
      chi:   2  -0.0000092493   residue:    0.0000457948
      Average number of iter. to solve lin. system:   29.9
      Total CPU time :  3483.5 s

      atom #  1   q point #   6   iter #  11
      chi:   1  -0.1117231173   residue:    0.0000141806
      chi:   2  -0.0000162576   residue:    0.0000070084
      Average number of iter. to solve lin. system:   29.5
      Total CPU time :  3541.3 s

      atom #  1   q point #   6   iter #  12
      chi:   1  -0.1117191777   residue:    0.0000039397
      chi:   2  -0.0000123898   residue:    0.0000038678
      Average number of iter. to solve lin. system:   29.4
      Total CPU time :  3598.4 s
      
      =--------------------------------------------=
             CONVERGENCE HAS BEEN REACHED
      =--------------------------------------------=

     Computing the sum over q of the response occupation matrices...

     q #   1 =  0.000000000   0.000000000   0.000000000

     Number of q in the star =    1
     List of q in the star:
          1   0.000000000   0.000000000   0.000000000

     q #   2 = -1.196596931  -0.690855560   0.112576642

     Number of q in the star =    6
     List of q in the star:
          1  -1.196596931  -0.690855560   0.112576642
          2  -0.000000000   1.381711120   0.112576642
          3   1.196596931  -0.690855560   0.112576642
          4   1.196596931   0.690855560  -0.112576642
          5  -1.196596931   0.690855560  -0.112576642
          6   0.000000000  -1.381711120  -0.112576642

     q #   3 = -1.196596931   0.690855560   0.225153283

     Number of q in the star =    6
     List of q in the star:
          1  -1.196596931   0.690855560   0.225153283
          2   1.196596931   0.690855560   0.225153283
          3   0.000000000  -1.381711120   0.225153283
          4   1.196596931  -0.690855560  -0.225153283
          5  -0.000000000   1.381711120  -0.225153283
          6  -1.196596931  -0.690855560  -0.225153283

     q #   4 =  1.196596931   2.072566681   0.000000000

     Number of q in the star =    6
     List of q in the star:
          1   1.196596931   2.072566681   0.000000000
          2   1.196596931  -2.072566681  -0.000000000
          3   2.393193862   0.000000000  -0.000000000
          4  -1.196596931   2.072566681   0.000000000
          5  -2.393193862   0.000000000  -0.000000000
          6  -1.196596931  -2.072566681  -0.000000000

     q #   5 =  0.000000000  -0.000000000   0.337729925

     Number of q in the star =    2
     List of q in the star:
          1   0.000000000  -0.000000000   0.337729925
          2  -0.000000000   0.000000000  -0.337729925

     q #   6 =  2.393193862   1.381711120   0.112576642

     Number of q in the star =    6
     List of q in the star:
          1   2.393193862   1.381711120   0.112576642
          2   0.000000000  -2.763422241   0.112576642
          3  -2.393193862   1.381711120   0.112576642
          4  -2.393193862  -1.381711120  -0.112576642
          5   2.393193862  -1.381711120  -0.112576642
          6  -0.000000000   2.763422241  -0.112576642

     Post-processing calculation of Hubbard parameters ...


     PRINTING TIMING FROM PWSCF ROUTINES: 

     init_run     :      8.42s CPU      8.59s WALL (       5 calls)
     electrons    :    261.93s CPU    268.26s WALL (       5 calls)

     Called by init_run:
     wfcinit      :      1.74s CPU      1.84s WALL (       5 calls)
     wfcinit:atom :      0.02s CPU      0.02s WALL (     704 calls)
     wfcinit:wfcr :     17.88s CPU     18.64s WALL (     704 calls)
     potinit      :      0.20s CPU      0.22s WALL (       5 calls)
     hinit0       :      0.03s CPU      0.03s WALL (       5 calls)

     Called by electrons:
     c_bands      :    261.93s CPU    268.25s WALL (       5 calls)
     v_of_rho     :      0.16s CPU      0.16s WALL (       6 calls)
     v_h          :      0.01s CPU      0.01s WALL (       6 calls)
     v_xc         :      0.15s CPU      0.15s WALL (       6 calls)

     Called by c_bands:
     init_us_2    :      0.35s CPU      0.37s WALL (    5814 calls)
     cegterg      :    243.51s CPU    248.82s WALL (     704 calls)

     Called by sum_band:

     Called by *egterg:
     cdiaghg      :     55.18s CPU     56.02s WALL (   13768 calls)
     cegterg:over :      3.76s CPU      3.86s WALL (   13064 calls)
     cegterg:upda :      0.55s CPU      0.56s WALL (   13064 calls)
     cegterg:last :      0.29s CPU      0.29s WALL (    2808 calls)
     h_psi        :   2971.95s CPU   3053.28s WALL (  236898 calls)
     g_psi        :      0.05s CPU      0.05s WALL (   13064 calls)

     Called by h_psi:
     h_psi:calbec :     41.26s CPU     42.36s WALL (  236898 calls)
     vloc_psi     :   2893.25s CPU   2972.45s WALL (  236898 calls)
                                        0.00s GPU  (  236898 calls)
     add_vuspsi   :     12.37s CPU     12.77s WALL (  236898 calls)
     vhpsi        :     22.31s CPU     22.95s WALL (  236898 calls)

     General routines
     calbec       :     60.63s CPU     62.45s WALL (  474500 calls)
     fft          :     11.12s CPU     11.23s WALL (    1620 calls)
     fftw         :   2902.25s CPU   2980.96s WALL ( 9598358 calls)
     davcio       :      2.72s CPU      3.25s WALL (  268004 calls)

     Parallel routines
     fft_scatt_xy :    219.47s CPU    224.62s WALL ( 9599978 calls)
     fft_scatt_yz :   1956.00s CPU   2012.58s WALL ( 9599978 calls)

     Hubbard U routines
     vhpsi        :     22.31s CPU     22.95s WALL (  236898 calls)

     init_vloc    :      0.02s CPU      0.02s WALL (       6 calls)
     init_us_1    :      0.00s CPU      0.00s WALL (       6 calls)
     add_vuspsi   :     12.37s CPU     12.77s WALL (  236898 calls)

     PRINTING TIMING FROM HP ROUTINES: 

     hp_setup_q   :      0.65s CPU     13.89s WALL (       6 calls)
     hp_init_q    :      5.25s CPU      6.67s WALL (       6 calls)
     hp_solve_lin :   3082.52s CPU   3172.30s WALL (       6 calls)
     hp_dvpsi_per :      0.11s CPU      0.13s WALL (     378 calls)
     hp_dnsq      :      1.01s CPU      1.12s WALL (      70 calls)
     hp_symdnsq   :      0.01s CPU      0.01s WALL (      70 calls)
     hp_dnstot_su :      0.00s CPU      0.00s WALL (       1 calls)
     hp_rotate_dn :      0.00s CPU      0.00s WALL (      42 calls)
     hp_calc_chi  :      0.00s CPU      0.00s WALL (       1 calls)
     hp_postproc  :      0.00s CPU      0.00s WALL (       1 calls)
     hp_run_nscf  :    374.03s CPU    392.77s WALL (       5 calls)
     hp_postproc  :      0.00s CPU      0.00s WALL (       1 calls)
     hp_psymdvscf :     58.91s CPU     64.44s WALL (      70 calls)

     PRINTING TIMING FROM LR MODULE: 

     sth_kernel   :   3010.80s CPU   3094.28s WALL (      70 calls)
     apply_dpot_b :     83.08s CPU     86.07s WALL (    4028 calls)
     ortho        :      0.71s CPU      0.74s WALL (    4406 calls)
     cgsolve      :   2827.16s CPU   2905.05s WALL (    4406 calls)
     ch_psi       :   2800.60s CPU   2877.62s WALL (  222426 calls)
     incdrhoscf   :     97.68s CPU    100.09s WALL (    4406 calls)
                                        0.00s GPU  (    4406 calls)
     dv_of_drho   :     11.12s CPU     11.18s WALL (      70 calls)
     mix_pot      :      0.48s CPU      1.03s WALL (      70 calls)
     setup_dgc    :      0.52s CPU      0.52s WALL (       6 calls)
     setup_dmuxc  :      0.12s CPU      0.13s WALL (       6 calls)
     setup_nbnd_o :      0.00s CPU      0.00s WALL (       6 calls)
     lr_orthoUwfc :      5.25s CPU      6.67s WALL (       6 calls)
     cft_wave     :     79.91s CPU     82.66s WALL (  257792 calls)

     HP           :  57m53.93s CPU  59m58.41s WALL


   This run was terminated on:  19:41: 1   5Mar2026            

=------------------------------------------------------------------------------=
   JOB DONE.
=------------------------------------------------------------------------------=
