
     Program PWSCF v.7.3.1 starts on 23Feb2026 at 20: 0:27 

     This program is part of the open-source Quantum ESPRESSO suite
     for quantum simulation of materials; please cite
         "P. Giannozzi et al., J. Phys.:Condens. Matter 21 395502 (2009);
         "P. Giannozzi et al., J. Phys.:Condens. Matter 29 465901 (2017);
         "P. Giannozzi et al., J. Chem. Phys. 152 154105 (2020);
          URL http://www.quantum-espresso.org", 
     in publications or presentations arising from this work. More details at
     http://www.quantum-espresso.org/quote

     Parallel version (MPI), running on    64 processors

     MPI processes distributed on     2 nodes
     240480 MiB available memory on the printing compute node when the environment starts

     Waiting for input...
     Reading input from standard input

     Current dimensions of program PWSCF are:
     Max number of different atomic species (ntypx) = 10
     Max number of k-points (npk) =  40000
     Max angular momentum in pseudopotentials (lmaxx) =  4

     R & G space division:  proc/nbgrp/npool/nimage =      64
     Subspace diagonalization in iterative solution of the eigenvalue problem:
     a serial algorithm will be used


     Parallelization info
     --------------------
     sticks:   dense  smooth     PW     G-vecs:    dense   smooth      PW
     Min          30      12      3                 7282     1826     275
     Max          31      13      4                 7319     1855     314
     Sum        1945     769    223               467365   117995   18465

     Using Slab Decomposition



     bravais-lattice index     =            4
     lattice parameter (alat)  =       5.9413  a.u.
     unit-cell volume          =    1222.6725 (a.u.)^3
     number of atoms/cell      =            3
     number of atomic types    =            2
     number of electrons       =        26.00
     number of Kohn-Sham states=           13
     kinetic-energy cutoff     =      80.0000  Ry
     charge density cutoff     =     800.0000  Ry
     scf convergence threshold =      1.0E-15
     mixing beta               =       0.2000
     number of iterations used =            8  plain     mixing
     Exchange-correlation= PBESOL
                           (   1   4  10   8   0   0   0)

     celldm(1)=   5.941254  celldm(2)=   0.000000  celldm(3)=   6.732015
     celldm(4)=   0.000000  celldm(5)=   0.000000  celldm(6)=   0.000000

     crystal axes: (cart. coord. in units of alat)
               a(1) = (   1.000000   0.000000   0.000000 )  
               a(2) = (  -0.500000   0.866025   0.000000 )  
               a(3) = (   0.000000   0.000000   6.732015 )  

     reciprocal axes: (cart. coord. in units 2 pi/alat)
               b(1) = (  1.000000  0.577350 -0.000000 )  
               b(2) = (  0.000000  1.154701  0.000000 )  
               b(3) = (  0.000000 -0.000000  0.148544 )  


     PseudoPot. # 1 for Mo read from file:
     ../../pseudo/Mo.pbesol.dojo.upf
     MD5 check sum: c40353276b9086539cda6b9e5a66907b
     Pseudo is Norm-conserving + core correction, Zval = 14.0
     Generated using ONCVPSP code by D. R. Hamann
     Using radial grid of 1640 points,  6 beta functions with: 
                l(1) =   0
                l(2) =   0
                l(3) =   1
                l(4) =   1
                l(5) =   2
                l(6) =   2

     PseudoPot. # 2 for S  read from file:
     ../../pseudo/S.pbesol.dojo.upf
     MD5 check sum: 501737efeeef1fb1c631cda521d4e019
     Pseudo is Norm-conserving + core correction, Zval =  6.0
     Generated using ONCVPSP code by D. R. Hamann
     Using radial grid of 1146 points,  6 beta functions with: 
                l(1) =   0
                l(2) =   0
                l(3) =   1
                l(4) =   1
                l(5) =   2
                l(6) =   2

     atomic species   valence    mass     pseudopotential
     Mo               14.00    95.95000     Mo( 1.00)
     S                 6.00    32.06500     S ( 1.00)

     12 Sym. Ops. (no inversion) found


                                    s                        frac. trans.

      isym =  1     identity                                     

 cryst.   s( 1) = (     1          0          0      )
                  (     0          1          0      )
                  (     0          0          1      )

 cart.    s( 1) = (  1.0000000  0.0000000  0.0000000 )
                  (  0.0000000  1.0000000  0.0000000 )
                  (  0.0000000  0.0000000  1.0000000 )


      isym =  2     180 deg rotation - cart. axis [0,1,0]        

 cryst.   s( 2) = (    -1          0          0      )
                  (     1          1          0      )
                  (     0          0         -1      )

 cart.    s( 2) = ( -1.0000000  0.0000000  0.0000000 )
                  (  0.0000000  1.0000000  0.0000000 )
                  (  0.0000000  0.0000000 -1.0000000 )


      isym =  3     120 deg rotation - cryst. axis [0,0,1]       

 cryst.   s( 3) = (     0          1          0      )
                  (    -1         -1          0      )
                  (     0          0          1      )

 cart.    s( 3) = ( -0.5000000 -0.8660254  0.0000000 )
                  (  0.8660254 -0.5000000  0.0000000 )
                  (  0.0000000  0.0000000  1.0000000 )


      isym =  4     120 deg rotation - cryst. axis [0,0,-1]      

 cryst.   s( 4) = (    -1         -1          0      )
                  (     1          0          0      )
                  (     0          0          1      )

 cart.    s( 4) = ( -0.5000000  0.8660254  0.0000000 )
                  ( -0.8660254 -0.5000000  0.0000000 )
                  (  0.0000000  0.0000000  1.0000000 )


      isym =  5     180 deg rotation - cryst. axis [1,-1,0]      

 cryst.   s( 5) = (     0         -1          0      )
                  (    -1          0          0      )
                  (     0          0         -1      )

 cart.    s( 5) = (  0.5000000 -0.8660254  0.0000000 )
                  ( -0.8660254 -0.5000000  0.0000000 )
                  (  0.0000000  0.0000000 -1.0000000 )


      isym =  6     180 deg rotation - cryst. axis [2,1,0]       

 cryst.   s( 6) = (     1          1          0      )
                  (     0         -1          0      )
                  (     0          0         -1      )

 cart.    s( 6) = (  0.5000000  0.8660254  0.0000000 )
                  (  0.8660254 -0.5000000  0.0000000 )
                  (  0.0000000  0.0000000 -1.0000000 )


      isym =  7     inv. 180 deg rotation - cart. axis [0,0,1]   

 cryst.   s( 7) = (     1          0          0      )
                  (     0          1          0      )
                  (     0          0         -1      )

 cart.    s( 7) = (  1.0000000  0.0000000  0.0000000 )
                  (  0.0000000  1.0000000  0.0000000 )
                  (  0.0000000  0.0000000 -1.0000000 )


      isym =  8     inv. 180 deg rotation - cart. axis [1,0,0]   

 cryst.   s( 8) = (    -1          0          0      )
                  (     1          1          0      )
                  (     0          0          1      )

 cart.    s( 8) = ( -1.0000000  0.0000000  0.0000000 )
                  (  0.0000000  1.0000000  0.0000000 )
                  (  0.0000000  0.0000000  1.0000000 )


      isym =  9     inv.  60 deg rotation - cryst. axis [0,0,1]  

 cryst.   s( 9) = (    -1         -1          0      )
                  (     1          0          0      )
                  (     0          0         -1      )

 cart.    s( 9) = ( -0.5000000  0.8660254  0.0000000 )
                  ( -0.8660254 -0.5000000  0.0000000 )
                  (  0.0000000  0.0000000 -1.0000000 )


      isym = 10     inv.  60 deg rotation - cryst. axis [0,0,-1] 

 cryst.   s(10) = (     0          1          0      )
                  (    -1         -1          0      )
                  (     0          0         -1      )

 cart.    s(10) = ( -0.5000000 -0.8660254  0.0000000 )
                  (  0.8660254 -0.5000000  0.0000000 )
                  (  0.0000000  0.0000000 -1.0000000 )


      isym = 11     inv. 180 deg rotation - cryst. axis [0,1,0]  

 cryst.   s(11) = (     1          1          0      )
                  (     0         -1          0      )
                  (     0          0          1      )

 cart.    s(11) = (  0.5000000  0.8660254  0.0000000 )
                  (  0.8660254 -0.5000000  0.0000000 )
                  (  0.0000000  0.0000000  1.0000000 )


      isym = 12     inv. 180 deg rotation - cryst. axis [1,1,0]  

 cryst.   s(12) = (     0         -1          0      )
                  (    -1          0          0      )
                  (     0          0          1      )

 cart.    s(12) = (  0.5000000 -0.8660254  0.0000000 )
                  ( -0.8660254 -0.5000000  0.0000000 )
                  (  0.0000000  0.0000000  1.0000000 )


     point group D_3h (-62m)
     there are  6 classes
     the character table:

       E     2C3   3C2   s_h   2S3   3s_v 
A'_1   1.00  1.00  1.00  1.00  1.00  1.00
A'_2   1.00  1.00 -1.00  1.00  1.00 -1.00
E'     2.00 -1.00  0.00  2.00 -1.00  0.00
A''1   1.00  1.00  1.00 -1.00 -1.00 -1.00
A''2   1.00  1.00 -1.00 -1.00 -1.00  1.00
E''    2.00 -1.00  0.00 -2.00  1.00  0.00

     the symmetry operations in each class and the name of the first element:

     E        1
          identity                                               
     2C3      3    4
          120 deg rotation - cryst. axis [0,0,1]                 
     3C2      2    6    5
          180 deg rotation - cart. axis [0,1,0]                  
     s_h      7
          inv. 180 deg rotation - cart. axis [0,0,1]             
     2S3      9   10
          inv.  60 deg rotation - cryst. axis [0,0,1]            
     3s_v     8   11   12
          inv. 180 deg rotation - cart. axis [1,0,0]             

   Cartesian axes

     site n.     atom                  positions (alat units)
         1        Mo     tau(   1) = (   0.0000000   0.5773502   3.3660074  )
         2        S      tau(   2) = (   0.5000000   0.2886751   3.8614288  )
         3        S      tau(   3) = (   0.5000000   0.2886751   2.8705860  )

   Crystallographic axes

     site n.     atom                  positions (cryst. coord.)
         1        Mo     tau(   1) = (  0.3333333  0.6666666  0.5000000  )
         2        S      tau(   2) = (  0.6666667  0.3333333  0.5735918  )
         3        S      tau(   3) = (  0.6666667  0.3333333  0.4264082  )

     number of k points=    37
                       cart. coord. in units 2pi/alat
        k(    1) = (   0.0000000   0.0000000   0.0000000), wk =   0.0061728
        k(    2) = (   0.0000000   0.0641500   0.0000000), wk =   0.0370370
        k(    3) = (   0.0000000   0.1283001   0.0000000), wk =   0.0370370
        k(    4) = (   0.0000000   0.1924501   0.0000000), wk =   0.0370370
        k(    5) = (   0.0000000   0.2566001   0.0000000), wk =   0.0370370
        k(    6) = (   0.0000000   0.3207501   0.0000000), wk =   0.0370370
        k(    7) = (   0.0000000   0.3849002   0.0000000), wk =   0.0370370
        k(    8) = (   0.0000000   0.4490502   0.0000000), wk =   0.0370370
        k(    9) = (   0.0000000   0.5132002   0.0000000), wk =   0.0370370
        k(   10) = (   0.0000000  -0.5773503   0.0000000), wk =   0.0185185
        k(   11) = (   0.0555556   0.0962250   0.0000000), wk =   0.0370370
        k(   12) = (   0.0555556   0.1603751   0.0000000), wk =   0.0740741
        k(   13) = (   0.0555556   0.2245251   0.0000000), wk =   0.0740741
        k(   14) = (   0.0555556   0.2886751   0.0000000), wk =   0.0740741
        k(   15) = (   0.0555556   0.3528252   0.0000000), wk =   0.0740741
        k(   16) = (   0.0555556   0.4169752   0.0000000), wk =   0.0740741
        k(   17) = (   0.0555556   0.4811252   0.0000000), wk =   0.0740741
        k(   18) = (   0.0555556   0.5452753   0.0000000), wk =   0.0740741
        k(   19) = (   0.1111111   0.1924501   0.0000000), wk =   0.0370370
        k(   20) = (   0.1111111   0.2566001   0.0000000), wk =   0.0740741
        k(   21) = (   0.1111111   0.3207501   0.0000000), wk =   0.0740741
        k(   22) = (   0.1111111   0.3849002   0.0000000), wk =   0.0740741
        k(   23) = (   0.1111111   0.4490502   0.0000000), wk =   0.0740741
        k(   24) = (   0.1111111   0.5132002   0.0000000), wk =   0.0740741
        k(   25) = (   0.1111111   0.5773503   0.0000000), wk =   0.0370370
        k(   26) = (   0.1666667   0.2886751   0.0000000), wk =   0.0370370
        k(   27) = (   0.1666667   0.3528252   0.0000000), wk =   0.0740741
        k(   28) = (   0.1666667   0.4169752   0.0000000), wk =   0.0740741
        k(   29) = (   0.1666667   0.4811252   0.0000000), wk =   0.0740741
        k(   30) = (   0.1666667   0.5452753   0.0000000), wk =   0.0740741
        k(   31) = (   0.2222222   0.3849002   0.0000000), wk =   0.0370370
        k(   32) = (   0.2222222   0.4490502   0.0000000), wk =   0.0740741
        k(   33) = (   0.2222222   0.5132002   0.0000000), wk =   0.0740741
        k(   34) = (   0.2222222   0.5773503   0.0000000), wk =   0.0370370
        k(   35) = (   0.2777778   0.4811252   0.0000000), wk =   0.0370370
        k(   36) = (   0.2777778   0.5452753   0.0000000), wk =   0.0740741
        k(   37) = (   0.3333333   0.5773503   0.0000000), wk =   0.0123457

                       cryst. coord.
        k(    1) = (   0.0000000   0.0000000   0.0000000), wk =   0.0061728
        k(    2) = (   0.0000000   0.0555556   0.0000000), wk =   0.0370370
        k(    3) = (   0.0000000   0.1111111   0.0000000), wk =   0.0370370
        k(    4) = (   0.0000000   0.1666667   0.0000000), wk =   0.0370370
        k(    5) = (   0.0000000   0.2222222   0.0000000), wk =   0.0370370
        k(    6) = (   0.0000000   0.2777778   0.0000000), wk =   0.0370370
        k(    7) = (   0.0000000   0.3333333   0.0000000), wk =   0.0370370
        k(    8) = (   0.0000000   0.3888889   0.0000000), wk =   0.0370370
        k(    9) = (   0.0000000   0.4444444   0.0000000), wk =   0.0370370
        k(   10) = (   0.0000000  -0.5000000   0.0000000), wk =   0.0185185
        k(   11) = (   0.0555556   0.0555556   0.0000000), wk =   0.0370370
        k(   12) = (   0.0555556   0.1111111   0.0000000), wk =   0.0740741
        k(   13) = (   0.0555556   0.1666667   0.0000000), wk =   0.0740741
        k(   14) = (   0.0555556   0.2222222   0.0000000), wk =   0.0740741
        k(   15) = (   0.0555556   0.2777778   0.0000000), wk =   0.0740741
        k(   16) = (   0.0555556   0.3333333   0.0000000), wk =   0.0740741
        k(   17) = (   0.0555556   0.3888889   0.0000000), wk =   0.0740741
        k(   18) = (   0.0555556   0.4444444   0.0000000), wk =   0.0740741
        k(   19) = (   0.1111111   0.1111111   0.0000000), wk =   0.0370370
        k(   20) = (   0.1111111   0.1666667   0.0000000), wk =   0.0740741
        k(   21) = (   0.1111111   0.2222222   0.0000000), wk =   0.0740741
        k(   22) = (   0.1111111   0.2777778   0.0000000), wk =   0.0740741
        k(   23) = (   0.1111111   0.3333333   0.0000000), wk =   0.0740741
        k(   24) = (   0.1111111   0.3888889   0.0000000), wk =   0.0740741
        k(   25) = (   0.1111111   0.4444444   0.0000000), wk =   0.0370370
        k(   26) = (   0.1666667   0.1666667   0.0000000), wk =   0.0370370
        k(   27) = (   0.1666667   0.2222222   0.0000000), wk =   0.0740741
        k(   28) = (   0.1666667   0.2777778   0.0000000), wk =   0.0740741
        k(   29) = (   0.1666667   0.3333333   0.0000000), wk =   0.0740741
        k(   30) = (   0.1666667   0.3888889   0.0000000), wk =   0.0740741
        k(   31) = (   0.2222222   0.2222222   0.0000000), wk =   0.0370370
        k(   32) = (   0.2222222   0.2777778   0.0000000), wk =   0.0740741
        k(   33) = (   0.2222222   0.3333333   0.0000000), wk =   0.0740741
        k(   34) = (   0.2222222   0.3888889   0.0000000), wk =   0.0370370
        k(   35) = (   0.2777778   0.2777778   0.0000000), wk =   0.0370370
        k(   36) = (   0.2777778   0.3333333   0.0000000), wk =   0.0740741
        k(   37) = (   0.3333333   0.3333333   0.0000000), wk =   0.0123457

     Dense  grid:   467365 G-vectors     FFT dimensions: (  54,  54, 375)

     Smooth grid:   117995 G-vectors     FFT dimensions: (  36,  36, 240)

     Dynamical RAM for                 wfc:       0.05 MB

     Dynamical RAM for     wfc (w. buffer):       1.73 MB

     Dynamical RAM for           str. fact:       0.22 MB

     Dynamical RAM for           local pot:       0.00 MB

     Dynamical RAM for          nlocal pot:       0.19 MB

     Dynamical RAM for                qrad:       4.54 MB

     Dynamical RAM for          rho,v,vnew:       0.73 MB

     Dynamical RAM for               rhoin:       0.24 MB

     Dynamical RAM for            rho*nmix:       1.78 MB

     Dynamical RAM for           G-vectors:       0.43 MB

     Dynamical RAM for          h,s,v(r/c):       0.03 MB

     Dynamical RAM for          <psi|beta>:       0.01 MB

     Dynamical RAM for                 psi:       0.09 MB

     Dynamical RAM for                hpsi:       0.09 MB

     Dynamical RAM for      wfcinit/wfcrot:       0.13 MB

     Estimated static dynamical RAM per process >       9.10 MB

     Estimated max dynamical RAM per process >      11.10 MB

     Estimated total dynamical RAM >     710.57 MB
 ----2D----2D----2D----2D----2D----2D----2D----2D----2D----2D----2D----2D
  The code is running with the 2D cutoff
  Please refer to:
  Sohier, T., Calandra, M., & Mauri, F. (2017), 
  Density functional perturbation theory for gated two-dimensional heterostructures:
  Theoretical developments and application to flexural phonons in graphene.
  Physical Review B, 96(7), 75448. https://doi.org/10.1103/PhysRevB.96.075448
 ----2D----2D----2D----2D----2D----2D----2D----2D----2D----2D----2D----2D
     Cannot read rho : file not found

     Initial potential from superposition of free atoms

     starting charge      25.9986, renormalised to      26.0000

     negative rho (up, down):  4.185E-06 0.000E+00
     Starting wfcs are   18 randomized atomic wfcs

     total cpu time spent up to now is       12.1 secs

     per-process dynamical memory:    63.2 Mb

     Self-consistent Calculation

     iteration #  1     ecut=    80.00 Ry     beta= 0.20
     Davidson diagonalization with overlap

---- Real-time Memory Report at c_bands before calling an iterative solver
            80 MiB given to the printing process from OS
            61 MiB allocation reported by mallinfo(arena+hblkhd)
        239938 MiB available memory on the node where the printing process lives
------------------
     ethr =  1.00E-05,  avg # of iterations = 11.5

     negative rho (up, down):  2.988E-06 0.000E+00

     total cpu time spent up to now is       13.9 secs

     total energy              =    -184.80535445 Ry
     estimated scf accuracy    <       0.42106458 Ry

     iteration #  2     ecut=    80.00 Ry     beta= 0.20
     Davidson diagonalization with overlap

---- Real-time Memory Report at c_bands before calling an iterative solver
            85 MiB given to the printing process from OS
            63 MiB allocation reported by mallinfo(arena+hblkhd)
        239861 MiB available memory on the node where the printing process lives
------------------
     ethr =  1.62E-03,  avg # of iterations =  2.1

     negative rho (up, down):  1.157E-06 0.000E+00

     total cpu time spent up to now is       14.5 secs

     total energy              =    -184.82579831 Ry
     estimated scf accuracy    <       0.07881863 Ry

     iteration #  3     ecut=    80.00 Ry     beta= 0.20
     Davidson diagonalization with overlap

---- Real-time Memory Report at c_bands before calling an iterative solver
            87 MiB given to the printing process from OS
            63 MiB allocation reported by mallinfo(arena+hblkhd)
        239857 MiB available memory on the node where the printing process lives
------------------
     ethr =  3.03E-04,  avg # of iterations =  2.4

     negative rho (up, down):  2.548E-06 0.000E+00

     total cpu time spent up to now is       15.1 secs

     total energy              =    -184.82390162 Ry
     estimated scf accuracy    <       0.02375652 Ry

     iteration #  4     ecut=    80.00 Ry     beta= 0.20
     Davidson diagonalization with overlap

---- Real-time Memory Report at c_bands before calling an iterative solver
            88 MiB given to the printing process from OS
            63 MiB allocation reported by mallinfo(arena+hblkhd)
        239857 MiB available memory on the node where the printing process lives
------------------
     ethr =  9.14E-05,  avg # of iterations =  4.1

     negative rho (up, down):  2.015E-06 0.000E+00

     total cpu time spent up to now is       15.8 secs

     total energy              =    -184.83068793 Ry
     estimated scf accuracy    <       0.00558728 Ry

     iteration #  5     ecut=    80.00 Ry     beta= 0.20
     Davidson diagonalization with overlap

---- Real-time Memory Report at c_bands before calling an iterative solver
            88 MiB given to the printing process from OS
            64 MiB allocation reported by mallinfo(arena+hblkhd)
        239855 MiB available memory on the node where the printing process lives
------------------
     ethr =  2.15E-05,  avg # of iterations =  4.1

     negative rho (up, down):  4.941E-06 0.000E+00

     total cpu time spent up to now is       16.5 secs

     total energy              =    -184.83204988 Ry
     estimated scf accuracy    <       0.00200473 Ry

     iteration #  6     ecut=    80.00 Ry     beta= 0.20
     Davidson diagonalization with overlap

---- Real-time Memory Report at c_bands before calling an iterative solver
            89 MiB given to the printing process from OS
            64 MiB allocation reported by mallinfo(arena+hblkhd)
        239846 MiB available memory on the node where the printing process lives
------------------
     ethr =  7.71E-06,  avg # of iterations =  4.0

     negative rho (up, down):  3.616E-06 0.000E+00

     total cpu time spent up to now is       17.2 secs

     total energy              =    -184.83110860 Ry
     estimated scf accuracy    <       0.00364714 Ry

     iteration #  7     ecut=    80.00 Ry     beta= 0.20
     Davidson diagonalization with overlap

---- Real-time Memory Report at c_bands before calling an iterative solver
            89 MiB given to the printing process from OS
            64 MiB allocation reported by mallinfo(arena+hblkhd)
        239846 MiB available memory on the node where the printing process lives
------------------
     ethr =  7.71E-06,  avg # of iterations =  4.4

     negative rho (up, down):  2.592E-06 0.000E+00

     total cpu time spent up to now is       17.9 secs

     total energy              =    -184.83181407 Ry
     estimated scf accuracy    <       0.00002262 Ry

     iteration #  8     ecut=    80.00 Ry     beta= 0.20
     Davidson diagonalization with overlap

---- Real-time Memory Report at c_bands before calling an iterative solver
            90 MiB given to the printing process from OS
            64 MiB allocation reported by mallinfo(arena+hblkhd)
        239844 MiB available memory on the node where the printing process lives
------------------
     ethr =  8.70E-08,  avg # of iterations =  7.8

     negative rho (up, down):  2.267E-06 0.000E+00

     total cpu time spent up to now is       19.1 secs

     total energy              =    -184.83173399 Ry
     estimated scf accuracy    <       0.00040233 Ry

     iteration #  9     ecut=    80.00 Ry     beta= 0.20
     Davidson diagonalization with overlap

---- Real-time Memory Report at c_bands before calling an iterative solver
            90 MiB given to the printing process from OS
            64 MiB allocation reported by mallinfo(arena+hblkhd)
        239840 MiB available memory on the node where the printing process lives
------------------
     ethr =  8.70E-08,  avg # of iterations =  7.4

     negative rho (up, down):  2.482E-06 0.000E+00

     total cpu time spent up to now is       20.2 secs

     total energy              =    -184.83183057 Ry
     estimated scf accuracy    <       0.00010273 Ry

     iteration # 10     ecut=    80.00 Ry     beta= 0.20
     Davidson diagonalization with overlap

---- Real-time Memory Report at c_bands before calling an iterative solver
            90 MiB given to the printing process from OS
            64 MiB allocation reported by mallinfo(arena+hblkhd)
        239839 MiB available memory on the node where the printing process lives
------------------
     ethr =  8.70E-08,  avg # of iterations =  2.8

     negative rho (up, down):  2.045E-06 0.000E+00

     total cpu time spent up to now is       20.8 secs

     total energy              =    -184.83182387 Ry
     estimated scf accuracy    <       0.00003554 Ry

     iteration # 11     ecut=    80.00 Ry     beta= 0.20
     Davidson diagonalization with overlap

---- Real-time Memory Report at c_bands before calling an iterative solver
            90 MiB given to the printing process from OS
            64 MiB allocation reported by mallinfo(arena+hblkhd)
        239838 MiB available memory on the node where the printing process lives
------------------
     ethr =  8.70E-08,  avg # of iterations =  4.5

     negative rho (up, down):  1.736E-06 0.000E+00

     total cpu time spent up to now is       21.6 secs

     total energy              =    -184.83183205 Ry
     estimated scf accuracy    <       0.00000085 Ry

     iteration # 12     ecut=    80.00 Ry     beta= 0.20
     Davidson diagonalization with overlap

---- Real-time Memory Report at c_bands before calling an iterative solver
            90 MiB given to the printing process from OS
            64 MiB allocation reported by mallinfo(arena+hblkhd)
        239838 MiB available memory on the node where the printing process lives
------------------
     ethr =  3.26E-09,  avg # of iterations =  4.6

     negative rho (up, down):  1.420E-06 0.000E+00

     total cpu time spent up to now is       22.3 secs

     total energy              =    -184.83183236 Ry
     estimated scf accuracy    <       0.00000010 Ry

     iteration # 13     ecut=    80.00 Ry     beta= 0.20
     Davidson diagonalization with overlap

---- Real-time Memory Report at c_bands before calling an iterative solver
            90 MiB given to the printing process from OS
            64 MiB allocation reported by mallinfo(arena+hblkhd)
        239838 MiB available memory on the node where the printing process lives
------------------
     ethr =  4.03E-10,  avg # of iterations =  6.7

     negative rho (up, down):  1.116E-06 0.000E+00

     total cpu time spent up to now is       23.3 secs

     total energy              =    -184.83183258 Ry
     estimated scf accuracy    <       0.00000142 Ry

     iteration # 14     ecut=    80.00 Ry     beta= 0.20
     Davidson diagonalization with overlap

---- Real-time Memory Report at c_bands before calling an iterative solver
            90 MiB given to the printing process from OS
            64 MiB allocation reported by mallinfo(arena+hblkhd)
        239838 MiB available memory on the node where the printing process lives
------------------
     ethr =  4.03E-10,  avg # of iterations =  1.0

     negative rho (up, down):  8.964E-07 0.000E+00

     total cpu time spent up to now is       23.8 secs

     total energy              =    -184.83183229 Ry
     estimated scf accuracy    <       0.00000143 Ry

     iteration # 15     ecut=    80.00 Ry     beta= 0.20
     Davidson diagonalization with overlap

---- Real-time Memory Report at c_bands before calling an iterative solver
            90 MiB given to the printing process from OS
            64 MiB allocation reported by mallinfo(arena+hblkhd)
        239838 MiB available memory on the node where the printing process lives
------------------
     ethr =  4.03E-10,  avg # of iterations =  5.0

     negative rho (up, down):  6.981E-07 0.000E+00

     total cpu time spent up to now is       24.6 secs

     total energy              =    -184.83183236 Ry
     estimated scf accuracy    <       0.00000021 Ry

     iteration # 16     ecut=    80.00 Ry     beta= 0.20
     Davidson diagonalization with overlap

---- Real-time Memory Report at c_bands before calling an iterative solver
            90 MiB given to the printing process from OS
            64 MiB allocation reported by mallinfo(arena+hblkhd)
        239838 MiB available memory on the node where the printing process lives
------------------
     ethr =  4.03E-10,  avg # of iterations =  1.0

     negative rho (up, down):  5.535E-07 0.000E+00

     total cpu time spent up to now is       25.1 secs

     total energy              =    -184.83183232 Ry
     estimated scf accuracy    <       0.00000018 Ry

     iteration # 17     ecut=    80.00 Ry     beta= 0.20
     Davidson diagonalization with overlap

---- Real-time Memory Report at c_bands before calling an iterative solver
            90 MiB given to the printing process from OS
            64 MiB allocation reported by mallinfo(arena+hblkhd)
        239838 MiB available memory on the node where the printing process lives
------------------
     ethr =  4.03E-10,  avg # of iterations =  4.2

     negative rho (up, down):  4.272E-07 0.000E+00

     total cpu time spent up to now is       25.8 secs

     total energy              =    -184.83183235 Ry
     estimated scf accuracy    <          5.4E-10 Ry

     iteration # 18     ecut=    80.00 Ry     beta= 0.20
     Davidson diagonalization with overlap

---- Real-time Memory Report at c_bands before calling an iterative solver
            91 MiB given to the printing process from OS
            64 MiB allocation reported by mallinfo(arena+hblkhd)
        239838 MiB available memory on the node where the printing process lives
------------------
     ethr =  2.07E-12,  avg # of iterations =  7.4

     negative rho (up, down):  3.327E-07 0.000E+00

     total cpu time spent up to now is       26.8 secs

     total energy              =    -184.83183236 Ry
     estimated scf accuracy    <          4.2E-10 Ry

     iteration # 19     ecut=    80.00 Ry     beta= 0.20
     Davidson diagonalization with overlap

---- Real-time Memory Report at c_bands before calling an iterative solver
            91 MiB given to the printing process from OS
            64 MiB allocation reported by mallinfo(arena+hblkhd)
        239845 MiB available memory on the node where the printing process lives
------------------
     ethr =  1.63E-12,  avg # of iterations =  3.8

     negative rho (up, down):  2.584E-07 0.000E+00

     total cpu time spent up to now is       27.5 secs

     total energy              =    -184.83183235 Ry
     estimated scf accuracy    <          1.6E-11 Ry

     iteration # 20     ecut=    80.00 Ry     beta= 0.20
     Davidson diagonalization with overlap

---- Real-time Memory Report at c_bands before calling an iterative solver
            91 MiB given to the printing process from OS
            64 MiB allocation reported by mallinfo(arena+hblkhd)
        239846 MiB available memory on the node where the printing process lives
------------------
     ethr =  1.00E-13,  avg # of iterations =  7.2

     negative rho (up, down):  2.006E-07 0.000E+00

     total cpu time spent up to now is       28.6 secs

     total energy              =    -184.83183236 Ry
     estimated scf accuracy    <          3.5E-10 Ry

     iteration # 21     ecut=    80.00 Ry     beta= 0.20
     Davidson diagonalization with overlap

---- Real-time Memory Report at c_bands before calling an iterative solver
            91 MiB given to the printing process from OS
            64 MiB allocation reported by mallinfo(arena+hblkhd)
        239846 MiB available memory on the node where the printing process lives
------------------
     ethr =  1.00E-13,  avg # of iterations =  4.8

     negative rho (up, down):  1.559E-07 0.000E+00

     total cpu time spent up to now is       29.4 secs

     total energy              =    -184.83183236 Ry
     estimated scf accuracy    <          4.9E-11 Ry

     iteration # 22     ecut=    80.00 Ry     beta= 0.20
     Davidson diagonalization with overlap

---- Real-time Memory Report at c_bands before calling an iterative solver
            91 MiB given to the printing process from OS
            64 MiB allocation reported by mallinfo(arena+hblkhd)
        239846 MiB available memory on the node where the printing process lives
------------------
     ethr =  1.00E-13,  avg # of iterations =  4.2

     negative rho (up, down):  1.211E-07 0.000E+00

     total cpu time spent up to now is       30.1 secs

     total energy              =    -184.83183236 Ry
     estimated scf accuracy    <          2.4E-13 Ry

     iteration # 23     ecut=    80.00 Ry     beta= 0.20
     Davidson diagonalization with overlap

---- Real-time Memory Report at c_bands before calling an iterative solver
            91 MiB given to the printing process from OS
            64 MiB allocation reported by mallinfo(arena+hblkhd)
        239846 MiB available memory on the node where the printing process lives
------------------
     ethr =  1.00E-13,  avg # of iterations =  1.0

     negative rho (up, down):  9.373E-08 0.000E+00

     total cpu time spent up to now is       30.6 secs

     total energy              =    -184.83183236 Ry
     estimated scf accuracy    <          6.9E-14 Ry

     iteration # 24     ecut=    80.00 Ry     beta= 0.20
     Davidson diagonalization with overlap

---- Real-time Memory Report at c_bands before calling an iterative solver
            91 MiB given to the printing process from OS
            64 MiB allocation reported by mallinfo(arena+hblkhd)
        239846 MiB available memory on the node where the printing process lives
------------------
     ethr =  1.00E-13,  avg # of iterations =  1.0

     negative rho (up, down):  7.245E-08 0.000E+00

     total cpu time spent up to now is       31.1 secs

     total energy              =    -184.83183236 Ry
     estimated scf accuracy    <          1.5E-13 Ry

     iteration # 25     ecut=    80.00 Ry     beta= 0.20
     Davidson diagonalization with overlap

---- Real-time Memory Report at c_bands before calling an iterative solver
            91 MiB given to the printing process from OS
            64 MiB allocation reported by mallinfo(arena+hblkhd)
        239846 MiB available memory on the node where the printing process lives
------------------
     ethr =  1.00E-13,  avg # of iterations =  1.0

     negative rho (up, down):  5.589E-08 0.000E+00

     total cpu time spent up to now is       31.6 secs

     total energy              =    -184.83183236 Ry
     estimated scf accuracy    <          3.1E-13 Ry

     iteration # 26     ecut=    80.00 Ry     beta= 0.20
     Davidson diagonalization with overlap

---- Real-time Memory Report at c_bands before calling an iterative solver
            91 MiB given to the printing process from OS
            64 MiB allocation reported by mallinfo(arena+hblkhd)
        239846 MiB available memory on the node where the printing process lives
------------------
     ethr =  1.00E-13,  avg # of iterations =  1.0

     negative rho (up, down):  4.301E-08 0.000E+00

     total cpu time spent up to now is       32.1 secs

     total energy              =    -184.83183236 Ry
     estimated scf accuracy    <          2.0E-13 Ry

     iteration # 27     ecut=    80.00 Ry     beta= 0.20
     Davidson diagonalization with overlap

---- Real-time Memory Report at c_bands before calling an iterative solver
            91 MiB given to the printing process from OS
            64 MiB allocation reported by mallinfo(arena+hblkhd)
        239846 MiB available memory on the node where the printing process lives
------------------
     ethr =  1.00E-13,  avg # of iterations =  1.0

     negative rho (up, down):  3.294E-08 0.000E+00

     total cpu time spent up to now is       32.5 secs

     total energy              =    -184.83183236 Ry
     estimated scf accuracy    <          8.4E-14 Ry

     iteration # 28     ecut=    80.00 Ry     beta= 0.20
     Davidson diagonalization with overlap

---- Real-time Memory Report at c_bands before calling an iterative solver
            91 MiB given to the printing process from OS
            64 MiB allocation reported by mallinfo(arena+hblkhd)
        239846 MiB available memory on the node where the printing process lives
------------------
     ethr =  1.00E-13,  avg # of iterations =  1.0

     negative rho (up, down):  2.512E-08 0.000E+00

     total cpu time spent up to now is       33.0 secs

     total energy              =    -184.83183236 Ry
     estimated scf accuracy    <          7.6E-14 Ry

     iteration # 29     ecut=    80.00 Ry     beta= 0.20
     Davidson diagonalization with overlap

---- Real-time Memory Report at c_bands before calling an iterative solver
            91 MiB given to the printing process from OS
            64 MiB allocation reported by mallinfo(arena+hblkhd)
        239845 MiB available memory on the node where the printing process lives
------------------
     ethr =  1.00E-13,  avg # of iterations =  1.0

     negative rho (up, down):  1.904E-08 0.000E+00

     total cpu time spent up to now is       33.5 secs

     total energy              =    -184.83183236 Ry
     estimated scf accuracy    <          5.4E-14 Ry

     iteration # 30     ecut=    80.00 Ry     beta= 0.20
     Davidson diagonalization with overlap

---- Real-time Memory Report at c_bands before calling an iterative solver
            91 MiB given to the printing process from OS
            64 MiB allocation reported by mallinfo(arena+hblkhd)
        239821 MiB available memory on the node where the printing process lives
------------------
     ethr =  1.00E-13,  avg # of iterations =  1.0

     negative rho (up, down):  1.432E-08 0.000E+00

     total cpu time spent up to now is       34.0 secs

     total energy              =    -184.83183236 Ry
     estimated scf accuracy    <          8.2E-14 Ry

     iteration # 31     ecut=    80.00 Ry     beta= 0.20
     Davidson diagonalization with overlap

---- Real-time Memory Report at c_bands before calling an iterative solver
            91 MiB given to the printing process from OS
            64 MiB allocation reported by mallinfo(arena+hblkhd)
        239842 MiB available memory on the node where the printing process lives
------------------
     ethr =  1.00E-13,  avg # of iterations =  1.0

     negative rho (up, down):  1.067E-08 0.000E+00

     total cpu time spent up to now is       34.5 secs

     total energy              =    -184.83183236 Ry
     estimated scf accuracy    <          3.4E-15 Ry

     iteration # 32     ecut=    80.00 Ry     beta= 0.20
     Davidson diagonalization with overlap

---- Real-time Memory Report at c_bands before calling an iterative solver
            91 MiB given to the printing process from OS
            64 MiB allocation reported by mallinfo(arena+hblkhd)
        239842 MiB available memory on the node where the printing process lives
------------------
     ethr =  1.00E-13,  avg # of iterations =  1.0

     total cpu time spent up to now is       34.9 secs

     total energy              =    -184.83183236 Ry
     estimated scf accuracy    <          1.5E-15 Ry

     iteration # 33     ecut=    80.00 Ry     beta= 0.20
     Davidson diagonalization with overlap

---- Real-time Memory Report at c_bands before calling an iterative solver
            91 MiB given to the printing process from OS
            64 MiB allocation reported by mallinfo(arena+hblkhd)
        239842 MiB available memory on the node where the printing process lives
------------------
     ethr =  1.00E-13,  avg # of iterations =  1.0

     total cpu time spent up to now is       35.4 secs

     End of self-consistent calculation

          k = 0.0000 0.0000 0.0000 ( 14855 PWs)   bands (ev):

   -66.6863 -40.8916 -40.6284 -40.6284 -20.1843 -18.8206 -11.7317  -8.5906
    -8.5906  -7.8020  -7.4339  -7.4339  -6.0277

     occupation numbers 
     1.0000   1.0000   1.0000   1.0000   1.0000   1.0000   1.0000   1.0000
     1.0000   1.0000   1.0000   1.0000   1.0000

          k = 0.0000 0.0642 0.0000 ( 14899 PWs)   bands (ev):

   -66.6849 -40.8890 -40.6417 -40.6314 -20.1354 -18.8007 -11.6761  -8.7010
    -8.5393  -8.0767  -7.5135  -7.2294  -6.0452

     occupation numbers 
     1.0000   1.0000   1.0000   1.0000   1.0000   1.0000   1.0000   1.0000
     1.0000   1.0000   1.0000   1.0000   1.0000

          k = 0.0000 0.1283 0.0000 ( 14873 PWs)   bands (ev):

   -66.6811 -40.8814 -40.6799 -40.6400 -19.9921 -18.7424 -11.5197  -8.9929
    -8.5041  -8.3900  -7.7250  -7.0385  -6.1181

     occupation numbers 
     1.0000   1.0000   1.0000   1.0000   1.0000   1.0000   1.0000   1.0000
     1.0000   1.0000   1.0000   1.0000   1.0000

          k = 0.0000 0.1925 0.0000 ( 14829 PWs)   bands (ev):

   -66.6751 -40.8698 -40.7380 -40.6532 -19.7644 -18.6499 -11.3019  -9.3715
    -8.9553  -8.1572  -8.0102  -7.0285  -6.2930

     occupation numbers 
     1.0000   1.0000   1.0000   1.0000   1.0000   1.0000   1.0000   1.0000
     1.0000   1.0000   1.0000   1.0000   1.0000

          k = 0.0000 0.2566 0.0000 ( 14791 PWs)   bands (ev):

   -66.6678 -40.8555 -40.8086 -40.6694 -19.4690 -18.5304 -11.1178  -9.7107
    -9.4117  -8.3146  -7.8662  -7.1828  -6.5776

     occupation numbers 
     1.0000   1.0000   1.0000   1.0000   1.0000   1.0000   1.0000   1.0000
     1.0000   1.0000   1.0000   1.0000   1.0000

          k = 0.0000 0.3208 0.0000 ( 14813 PWs)   bands (ev):

   -66.6601 -40.8829 -40.8403 -40.6865 -19.1305 -18.3950 -11.1273  -9.8755
    -9.8580  -8.5994  -7.5537  -7.4043  -6.8650

     occupation numbers 
     1.0000   1.0000   1.0000   1.0000   1.0000   1.0000   1.0000   1.0000
     1.0000   1.0000   1.0000   1.0000   1.0000

          k = 0.0000 0.3849 0.0000 ( 14770 PWs)   bands (ev):

   -66.6527 -40.9519 -40.8259 -40.7026 -18.7831 -18.2586 -11.3491 -10.2674
    -9.9122  -8.8397  -7.6086  -7.2641  -6.9892

     occupation numbers 
     1.0000   1.0000   1.0000   1.0000   1.0000   1.0000   1.0000   1.0000
     1.0000   1.0000   1.0000   1.0000   1.0000

          k = 0.0000 0.4491 0.0000 ( 14730 PWs)   bands (ev):

   -66.6468 -41.0076 -40.8142 -40.7156 -18.4718 -18.1397 -11.6222 -10.6018
    -9.9844  -9.0203  -7.7578  -7.0387  -6.8929

     occupation numbers 
     1.0000   1.0000   1.0000   1.0000   1.0000   1.0000   1.0000   1.0000
     1.0000   1.0000   1.0000   1.0000   1.0000

          k = 0.0000 0.5132 0.0000 ( 14702 PWs)   bands (ev):

   -66.6429 -41.0438 -40.8065 -40.7241 -18.2509 -18.0578 -11.8299 -10.8221
   -10.0819  -9.1318  -7.8447  -6.9011  -6.7078

     occupation numbers 
     1.0000   1.0000   1.0000   1.0000   1.0000   1.0000   1.0000   1.0000
     1.0000   1.0000   1.0000   1.0000   1.0000

          k = 0.0000-0.5774 0.0000 ( 14710 PWs)   bands (ev):

   -66.6415 -41.0563 -40.8038 -40.7271 -18.1702 -18.0284 -11.9071 -10.8992
   -10.1254  -9.1695  -7.8729  -6.8557  -6.6191

     occupation numbers 
     1.0000   1.0000   1.0000   1.0000   1.0000   1.0000   1.0000   1.0000
     1.0000   1.0000   1.0000   1.0000   1.0000

          k = 0.0556 0.0962 0.0000 ( 14855 PWs)   bands (ev):

   -66.6823 -40.8839 -40.6671 -40.6375 -20.0393 -18.7616 -11.5697  -8.9008
    -8.4402  -8.3771  -7.6870  -7.0519  -6.0903

     occupation numbers 
     1.0000   1.0000   1.0000   1.0000   1.0000   1.0000   1.0000   1.0000
     1.0000   1.0000   1.0000   1.0000   1.0000

          k = 0.0556 0.1604 0.0000 ( 14836 PWs)   bands (ev):

   -66.6774 -40.8743 -40.7145 -40.6493 -19.8537 -18.6861 -11.3798  -9.2318
    -8.7635  -8.2545  -7.9933  -6.9367  -6.2144

     occupation numbers 
     1.0000   1.0000   1.0000   1.0000   1.0000   1.0000   1.0000   1.0000
     1.0000   1.0000   1.0000   1.0000   1.0000

          k = 0.0556 0.2245 0.0000 ( 14814 PWs)   bands (ev):

   -66.6708 -40.8613 -40.7776 -40.6651 -19.5919 -18.5797 -11.1683  -9.5860
    -9.1840  -8.3345  -8.0080  -6.9879  -6.4480

     occupation numbers 
     1.0000   1.0000   1.0000   1.0000   1.0000   1.0000   1.0000   1.0000
     1.0000   1.0000   1.0000   1.0000   1.0000

          k = 0.0556 0.2887 0.0000 ( 14816 PWs)   bands (ev):

   -66.6633 -40.8487 -40.8466 -40.6831 -19.2741 -18.4515 -11.0703  -9.8235
    -9.6288  -8.6368  -7.7470  -7.1738  -6.7321

     occupation numbers 
     1.0000   1.0000   1.0000   1.0000   1.0000   1.0000   1.0000   1.0000
     1.0000   1.0000   1.0000   1.0000   1.0000

          k = 0.0556 0.3528 0.0000 ( 14798 PWs)   bands (ev):

   -66.6557 -40.9190 -40.8318 -40.7010 -18.9296 -18.3143 -11.2030 -10.0710
    -9.8796  -8.8685  -7.5431  -7.4071  -6.8890

     occupation numbers 
     1.0000   1.0000   1.0000   1.0000   1.0000   1.0000   1.0000   1.0000
     1.0000   1.0000   1.0000   1.0000   1.0000

          k = 0.0556 0.4170 0.0000 ( 14759 PWs)   bands (ev):

   -66.6491 -40.9803 -40.8187 -40.7167 -18.5974 -18.1848 -11.4607 -10.4638
    -9.9161  -9.0292  -7.6187  -7.4061  -6.8137

     occupation numbers 
     1.0000   1.0000   1.0000   1.0000   1.0000   1.0000   1.0000   1.0000
     1.0000   1.0000   1.0000   1.0000   1.0000

          k = 0.0556 0.4811 0.0000 ( 14729 PWs)   bands (ev):

   -66.6441 -41.0253 -40.8090 -40.7283 -18.3276 -18.0823 -11.7004 -10.7584
   -10.0134  -9.1287  -7.7719  -7.2666  -6.6370

     occupation numbers 
     1.0000   1.0000   1.0000   1.0000   1.0000   1.0000   1.0000   1.0000
     1.0000   1.0000   1.0000   1.0000   1.0000

          k = 0.0556 0.5453 0.0000 ( 14710 PWs)   bands (ev):

   -66.6415 -41.0492 -40.8038 -40.7345 -18.1739 -18.0253 -11.8415 -10.9164
   -10.0955  -9.1761  -7.8512  -7.1747  -6.4965

     occupation numbers 
     1.0000   1.0000   1.0000   1.0000   1.0000   1.0000   1.0000   1.0000
     1.0000   1.0000   1.0000   1.0000   1.0000

          k = 0.1111 0.1925 0.0000 ( 14799 PWs)   bands (ev):

   -66.6718 -40.8634 -40.7654 -40.6651 -19.6338 -18.5965 -11.1883  -9.5326
    -9.0545  -8.4324  -8.0672  -6.8584  -6.4000

     occupation numbers 
     1.0000   1.0000   1.0000   1.0000   1.0000   1.0000   1.0000   1.0000
     1.0000   1.0000   1.0000   1.0000   1.0000

          k = 0.1111 0.2566 0.0000 ( 14808 PWs)   bands (ev):

   -66.6650 -40.8499 -40.8266 -40.6853 -19.3488 -18.4806 -11.0408  -9.7734
    -9.4043  -8.8406  -7.8903  -6.9205  -6.6427

     occupation numbers 
     1.0000   1.0000   1.0000   1.0000   1.0000   1.0000   1.0000   1.0000
     1.0000   1.0000   1.0000   1.0000   1.0000

          k = 0.1111 0.3208 0.0000 ( 14797 PWs)   bands (ev):

   -66.6577 -40.8907 -40.8356 -40.7070 -19.0228 -18.3487 -11.0758  -9.8586
    -9.8380  -9.0774  -7.8189  -7.1132  -6.8007

     occupation numbers 
     1.0000   1.0000   1.0000   1.0000   1.0000   1.0000   1.0000   1.0000
     1.0000   1.0000   1.0000   1.0000   1.0000

          k = 0.1111 0.3849 0.0000 ( 14773 PWs)   bands (ev):

   -66.6508 -40.9503 -40.8221 -40.7275 -18.6895 -18.2153 -11.2733 -10.3235
    -9.8214  -9.1807  -7.8399  -7.3654  -6.7669

     occupation numbers 
     1.0000   1.0000   1.0000   1.0000   1.0000   1.0000   1.0000   1.0000
     1.0000   1.0000   1.0000   1.0000   1.0000

          k = 0.1111 0.4491 0.0000 ( 14746 PWs)   bands (ev):

   -66.6452 -40.9984 -40.8111 -40.7442 -18.3926 -18.0984 -11.4969 -10.7073
    -9.8902  -9.2091  -7.8064  -7.6072  -6.6152

     occupation numbers 
     1.0000   1.0000   1.0000   1.0000   1.0000   1.0000   1.0000   1.0000
     1.0000   1.0000   1.0000   1.0000   1.0000

          k = 0.1111 0.5132 0.0000 ( 14735 PWs)   bands (ev):

   -66.6415 -41.0296 -40.8039 -40.7551 -18.1832 -18.0175 -11.6620 -10.9578
   -10.0057  -9.2017  -7.7829  -7.7353  -6.4407

     occupation numbers 
     1.0000   1.0000   1.0000   1.0000   1.0000   1.0000   1.0000   1.0000
     1.0000   1.0000   1.0000   1.0000   1.0000

          k = 0.1111 0.5774 0.0000 ( 14718 PWs)   bands (ev):

   -66.6402 -41.0404 -40.8013 -40.7589 -18.1070 -17.9885 -11.7226 -11.0448
   -10.0585  -9.1935  -7.8480  -7.7042  -6.3589

     occupation numbers 
     1.0000   1.0000   1.0000   1.0000   1.0000   1.0000   1.0000   1.0000
     1.0000   1.0000   1.0000   1.0000   1.0000

          k = 0.1667 0.2887 0.0000 ( 14803 PWs)   bands (ev):

   -66.6583 -40.8789 -40.8369 -40.7111 -19.0548 -18.3603 -11.0243  -9.8184
    -9.7257  -9.2248  -7.9282  -6.9763  -6.7709

     occupation numbers 
     1.0000   1.0000   1.0000   1.0000   1.0000   1.0000   1.0000   1.0000
     1.0000   1.0000   1.0000   1.0000   1.0000

          k = 0.1667 0.3528 0.0000 ( 14776 PWs)   bands (ev):

   -66.6517 -40.9290 -40.8239 -40.7387 -18.7381 -18.2305 -11.1425 -10.2092
    -9.7398  -9.3350  -8.1336  -7.1666  -6.7580

     occupation numbers 
     1.0000   1.0000   1.0000   1.0000   1.0000   1.0000   1.0000   1.0000
     1.0000   1.0000   1.0000   1.0000   1.0000

          k = 0.1667 0.4170 0.0000 ( 14761 PWs)   bands (ev):

   -66.6459 -40.9718 -40.8124 -40.7638 -18.4359 -18.1071 -11.3011 -10.6643
    -9.7257  -9.3166  -8.3101  -7.4287  -6.6397

     occupation numbers 
     1.0000   1.0000   1.0000   1.0000   1.0000   1.0000   1.0000   1.0000
     1.0000   1.0000   1.0000   1.0000   1.0000

          k = 0.1667 0.4811 0.0000 ( 14748 PWs)   bands (ev):

   -66.6415 -41.0030 -40.8039 -40.7828 -18.1936 -18.0086 -11.4279 -11.0017
    -9.8511  -9.2429  -8.3501  -7.6841  -6.4552

     occupation numbers 
     1.0000   1.0000   1.0000   1.0000   1.0000   1.0000   1.0000   1.0000
     1.0000   1.0000   1.0000   1.0000   1.0000

          k = 0.1667 0.5453 0.0000 ( 14749 PWs)   bands (ev):

   -66.6392 -41.0194 -40.7993 -40.7931 -18.0572 -17.9535 -11.4947 -11.1806
    -9.9753  -9.1744  -8.3372  -7.8494  -6.2968

     occupation numbers 
     1.0000   1.0000   1.0000   1.0000   1.0000   1.0000   1.0000   1.0000
     1.0000   1.0000   1.0000   1.0000   1.0000

          k = 0.2222 0.3849 0.0000 ( 14759 PWs)   bands (ev):

   -66.6461 -40.9598 -40.8129 -40.7734 -18.4511 -18.1097 -11.2178 -10.6458
    -9.6215  -9.3652  -8.5469  -7.3513  -6.6552

     occupation numbers 
     1.0000   1.0000   1.0000   1.0000   1.0000   1.0000   1.0000   1.0000
     1.0000   1.0000   1.0000   1.0000   1.0000

          k = 0.2222 0.4491 0.0000 ( 14747 PWs)   bands (ev):

   -66.6415 -40.9812 -40.8054 -40.8039 -18.2004 -18.0028 -11.2518 -11.0289
    -9.6412  -9.2750  -8.8555  -7.6084  -6.4804

     occupation numbers 
     1.0000   1.0000   1.0000   1.0000   1.0000   1.0000   1.0000   1.0000
     1.0000   1.0000   1.0000   1.0000   1.0000

          k = 0.2222 0.5132 0.0000 ( 14746 PWs)   bands (ev):

   -66.6385 -40.9930 -40.8282 -40.7980 -18.0272 -17.9282 -11.2831 -11.2364
    -9.8337  -9.1467  -8.9479  -7.8486  -6.2692

     occupation numbers 
     1.0000   1.0000   1.0000   1.0000   1.0000   1.0000   1.0000   1.0000
     1.0000   1.0000   1.0000   1.0000   1.0000

          k = 0.2222 0.5774 0.0000 ( 14774 PWs)   bands (ev):

   -66.6375 -40.9967 -40.8366 -40.7960 -17.9650 -17.9012 -11.3718 -11.2172
    -9.9444  -9.0803  -8.9571  -7.9546  -6.1643

     occupation numbers 
     1.0000   1.0000   1.0000   1.0000   1.0000   1.0000   1.0000   1.0000
     1.0000   1.0000   1.0000   1.0000   1.0000

          k = 0.2778 0.4811 0.0000 ( 14728 PWs)   bands (ev):

   -66.6383 -40.9788 -40.8456 -40.7976 -18.0172 -17.9188 -11.3210 -11.1115
    -9.6712  -9.3079  -9.1348  -7.8470  -6.2608

     occupation numbers 
     1.0000   1.0000   1.0000   1.0000   1.0000   1.0000   1.0000   1.0000
     1.0000   1.0000   1.0000   1.0000   1.0000

          k = 0.2778 0.5453 0.0000 ( 14747 PWs)   bands (ev):

   -66.6366 -40.9706 -40.8739 -40.7942 -17.9167 -17.8715 -11.4808 -10.9331
    -9.9397  -9.4130  -8.9943  -8.0409  -6.0677

     occupation numbers 
     1.0000   1.0000   1.0000   1.0000   1.0000   1.0000   1.0000   1.0000
     1.0000   1.0000   1.0000   1.0000   1.0000

          k = 0.3333 0.5774 0.0000 ( 14760 PWs)   bands (ev):

   -66.6359 -40.9511 -40.9015 -40.7929 -17.8780 -17.8510 -11.5515 -10.6852
   -10.1613  -9.5343  -8.9087  -8.1401  -5.9679

     occupation numbers 
     1.0000   1.0000   1.0000   1.0000   1.0000   1.0000   1.0000   1.0000
     1.0000   1.0000   1.0000   1.0000   1.0000

     highest occupied level (ev):    -5.9679

!    total energy              =    -184.83183236 Ry
     estimated scf accuracy    <          4.5E-16 Ry

     The total energy is the sum of the following terms:
     one-electron contribution =   -2103.64703968 Ry
     hartree contribution      =    1047.39998785 Ry
     xc contribution           =     -33.16220167 Ry
     ewald contribution        =     904.57742115 Ry

     convergence has been achieved in  33 iterations

     Writing all to output data dir ./tmp/MoS2.save/ :
     XML data file, charge density, pseudopotentials, collected wavefunctions

     init_run     :      1.67s CPU      2.14s WALL (       1 calls)
     electrons    :     22.17s CPU     23.64s WALL (       1 calls)

     Called by init_run:
     wfcinit      :      0.24s CPU      0.31s WALL (       1 calls)
     wfcinit:atom :      0.00s CPU      0.00s WALL (      37 calls)
     wfcinit:wfcr :      0.23s CPU      0.29s WALL (      37 calls)
     potinit      :      0.61s CPU      0.61s WALL (       1 calls)
     hinit0       :      0.26s CPU      0.32s WALL (       1 calls)

     Called by electrons:
     c_bands      :     18.94s CPU     20.20s WALL (      33 calls)
     sum_band     :      2.49s CPU      2.60s WALL (      33 calls)
     v_of_rho     :      0.41s CPU      0.41s WALL (      34 calls)
     v_h          :      0.03s CPU      0.03s WALL (      34 calls)
     v_xc         :      0.38s CPU      0.39s WALL (      34 calls)
     mix_rho      :      0.06s CPU      0.07s WALL (      33 calls)

     Called by c_bands:
     init_us_2    :      0.28s CPU      0.30s WALL (    2479 calls)
     cegterg      :     18.15s CPU     19.05s WALL (    1221 calls)

     Called by sum_band:
     sum_band:wei :      0.00s CPU      0.00s WALL (      33 calls)
     sum_band:loo :      2.43s CPU      2.54s WALL (      33 calls)
     sum_band:buf :      0.01s CPU      0.01s WALL (    1221 calls)
     sum_band:ini :      0.14s CPU      0.15s WALL (    1221 calls)

     Called by *egterg:
     cdiaghg      :      1.54s CPU      1.70s WALL (    5503 calls)
     cegterg:over :      0.58s CPU      0.60s WALL (    4282 calls)
     cegterg:upda :      0.15s CPU      0.15s WALL (    4282 calls)
     cegterg:last :      0.18s CPU      0.19s WALL (    3029 calls)
     h_psi        :     15.50s CPU     16.25s WALL (    5540 calls)
     g_psi        :      0.04s CPU      0.04s WALL (    4282 calls)

     Called by h_psi:
     h_psi:calbec :      0.71s CPU      0.78s WALL (    5540 calls)
     vloc_psi     :     14.36s CPU     15.03s WALL (    5540 calls)
     add_vuspsi   :      0.35s CPU      0.37s WALL (    5540 calls)

     General routines
     calbec       :      0.69s CPU      0.76s WALL (    5540 calls)
     fft          :      0.56s CPU      0.62s WALL (     406 calls)
     ffts         :      0.60s CPU      0.60s WALL (      67 calls)
     fftw         :     15.33s CPU     16.04s WALL (  114273 calls)
     interpolate  :      0.62s CPU      0.62s WALL (      34 calls)

     Parallel routines

     PWSCF        :     27.25s CPU     36.58s WALL


   This run was terminated on:  20: 1: 3  23Feb2026            

=------------------------------------------------------------------------------=
   JOB DONE.
=------------------------------------------------------------------------------=
