
     Program PHONON v.7.5 starts on  5Mar2026 at 17: 5:22 
        Git branch: HEAD
        Last git commit: 770a0b2d12928a67048e2f3da8d10d057e52179e
        Last git commit date: Tue Aug 19 09:57:12 2025 +0000
        Last git commit subject: Merge branch 'QE-7.5-RC' into 'master'

     This program is part of the open-source Quantum ESPRESSO suite
     for quantum simulation of materials; please cite
         "P. Giannozzi et al., J. Phys.:Condens. Matter 21 395502 (2009);
         "P. Giannozzi et al., J. Phys.:Condens. Matter 29 465901 (2017);
         "P. Giannozzi et al., J. Chem. Phys. 152 154105 (2020);
          URL http://www.quantum-espresso.org", 
     in publications or presentations arising from this work. More details at
     http://www.quantum-espresso.org/quote

     Parallel version (MPI), running on    64 processors

     MPI processes distributed on     4 nodes
     241189 MiB available memory on the printing compute node when the environment starts

     Waiting for input...
     Reading input from standard input
      Title line not specified: using 'default'.
     Run is not recoverable starting from scratch


     Dynamical matrices for q-points given in input
     (   7q-points):
       N         xq(1)         xq(2)         xq(3) 
       1  -0.000000000  -0.000000000  -0.000000000
       2  -0.000000003  -0.192450106  -0.000000000
       3  -0.000000006  -0.384900212  -0.000000000
       4   0.000000009   0.577350318  -0.000000000
       5  -0.166666687  -0.288675159  -0.000000000
       6  -0.166666701  -0.481125176  -0.000000000
       7  -0.333333373  -0.577350318  -0.000000000

     Reading xml data from directory:

     ./MoS2.save/

     R & G space division:  proc/nbgrp/npool/nimage =      64
     Subspace diagonalization in iterative solution of the eigenvalue problem:
     a serial algorithm will be used


     IMPORTANT: XC functional enforced from input :
     Exchange-correlation= PBESOL
                           (   1   4  10   8   0   0   0)
     Any further DFT definition will be discarded
     Please, verify this is what you really want


     Parallelization info
     --------------------
     sticks:   dense  smooth     PW     G-vecs:    dense   smooth      PW
     Min          30      15      4                 7300     2568     388
     Max          31      17      5                 7337     2593     413
     Sum        1945     967    283               468457   165261   25403

     Using Slab Decomposition

     Reading collected, re-writing distributed wavefunctions in ./

     Number and degeneracy of irreps per q-point
       N         xq(1)         xq(2)         xq(3)   N irreps
  autoval = -.1694E+00
     Irreps are as follows:

                     mode #   1
                     (  -0.00000  -0.00000   ) 
                     (  -0.00000  -0.00000   ) 
                     (  -0.00000  -0.00000   ) 
                     (  -0.70711  -0.00000   ) 
                     (  -0.00012  -0.00000   ) 
                     (   0.00000  -0.00000   ) 
                     (   0.70711  -0.00000   ) 
                     (   0.00012  -0.00000   ) 
                     (  -0.00000  -0.00000   ) 
  autoval = -.1694E+00
     Irreps are as follows:

                     mode #   2
                     (  -0.00000   0.00000   ) 
                     (  -0.00000   0.00000   ) 
                     (  -0.00000   0.00000   ) 
                     (  -0.00012  -0.00000   ) 
                     (   0.70711   0.00000   ) 
                     (  -0.00000  -0.00000   ) 
                     (   0.00012   0.00000   ) 
                     (  -0.70711  -0.00000   ) 
                     (   0.00000   0.00000   ) 
  autoval = -.5953E-01
     Irreps are as follows:

                     mode #   3
                     (  -0.00000  -0.00000   ) 
                     (  -0.00000  -0.00000   ) 
                     (  -1.00000  -0.00000   ) 
                     (  -0.00000  -0.00000   ) 
                     (  -0.00000  -0.00000   ) 
                     (  -0.00000  -0.00000   ) 
                     (  -0.00000  -0.00000   ) 
                     (  -0.00000  -0.00000   ) 
                     (  -0.00000  -0.00000   ) 
  autoval = -.3638E-01
     Irreps are as follows:

                     mode #   4
                     (  -0.00000  -0.00000   ) 
                     (  -0.00000  -0.00000   ) 
                     (  -0.00000  -0.00000   ) 
                     (   0.00000  -0.00000   ) 
                     (   0.00000  -0.00000   ) 
                     (  -0.70711  -0.00000   ) 
                     (  -0.00000  -0.00000   ) 
                     (   0.00000  -0.00000   ) 
                     (  -0.70711  -0.00000   ) 
  autoval = -.4644E-02
     Irreps are as follows:

                     mode #   5
                     (  -0.00000  -0.00000   ) 
                     (  -0.00000  -0.00000   ) 
                     (  -0.00000  -0.00000   ) 
                     (  -0.00000  -0.00000   ) 
                     (  -0.00000  -0.00000   ) 
                     (  -0.70711  -0.00000   ) 
                     (  -0.00000  -0.00000   ) 
                     (   0.00000  -0.00000   ) 
                     (   0.70711  -0.00000   ) 
  autoval = 0.1927E+00
     Irreps are as follows:

                     mode #   6
                     (  -0.00000  -0.00000   ) 
                     (  -0.00000  -0.00000   ) 
                     (  -0.00000  -0.00000   ) 
                     (  -0.00168  -0.00000   ) 
                     (   0.70710  -0.00000   ) 
                     (   0.00000  -0.00000   ) 
                     (  -0.00168  -0.00000   ) 
                     (   0.70710  -0.00000   ) 
                     (   0.00000  -0.00000   ) 
  autoval = 0.1927E+00
     Irreps are as follows:

                     mode #   7
                     (  -0.00000  -0.00000   ) 
                     (  -0.00000  -0.00000   ) 
                     (  -0.00000  -0.00000   ) 
                     (  -0.70710  -0.00000   ) 
                     (  -0.00168  -0.00000   ) 
                     (  -0.00000  -0.00000   ) 
                     (  -0.70710  -0.00000   ) 
                     (  -0.00168  -0.00000   ) 
                     (  -0.00000  -0.00000   ) 
  autoval = 0.2106E+01
     Irreps are as follows:

                     mode #   8
                     (  -0.00022  -0.00000   ) 
                     (   1.00000  -0.00000   ) 
                     (  -0.00000  -0.00000   ) 
                     (  -0.00000  -0.00000   ) 
                     (  -0.00000  -0.00000   ) 
                     (  -0.00000  -0.00000   ) 
                     (  -0.00000  -0.00000   ) 
                     (  -0.00000  -0.00000   ) 
                     (  -0.00000  -0.00000   ) 
  autoval = 0.2106E+01
     Irreps are as follows:

                     mode #   9
                     (  -1.00000  -0.00000   ) 
                     (  -0.00022  -0.00000   ) 
                     (  -0.00000   0.00000   ) 
                     (  -0.00000   0.00000   ) 
                     (  -0.00000   0.00000   ) 
                     (  -0.00000   0.00000   ) 
                     (  -0.00000   0.00000   ) 
                     (  -0.00000   0.00000   ) 
                     (  -0.00000   0.00000   ) 
       1  -0.000000000  -0.000000000  -0.000000000       6
        1   2   2   1   1   2
  autoval = -.8518E+00
     Irreps are as follows:

                     mode #   1
                     (  -0.00000  -0.00000   ) 
                     (  -0.00000  -0.00000   ) 
                     (  -0.00000  -0.00000   ) 
                     (  -0.70711  -0.00000   ) 
                     (  -0.00000  -0.00000   ) 
                     (  -0.00000   0.00000   ) 
                     (   0.70711   0.00000   ) 
                     (  -0.00000  -0.00000   ) 
                     (   0.00000  -0.00000   ) 
  autoval = -.2101E+00
     Irreps are as follows:

                     mode #   2
                     (  -0.00000   0.00000   ) 
                     (  -0.00000   0.00000   ) 
                     (  -0.00000   0.00000   ) 
                     (   0.00000   0.00000   ) 
                     (  -0.31120   0.00000   ) 
                     (   0.31003   0.55411   ) 
                     (   0.00000   0.00000   ) 
                     (   0.31120   0.00000   ) 
                     (   0.31003   0.55411   ) 
  autoval = -.2024E+00
     Irreps are as follows:

                     mode #   3
                     (  -0.00000  -0.00000   ) 
                     (  -0.00000  -0.00000   ) 
                     (  -0.00000  -0.00000   ) 
                     (  -0.00000   0.00000   ) 
                     (  -0.50179   0.00000   ) 
                     (  -0.42209   0.26467   ) 
                     (  -0.00000   0.00000   ) 
                     (  -0.50179  -0.00000   ) 
                     (   0.42209  -0.26467   ) 
  autoval = -.5953E-01
     Irreps are as follows:

                     mode #   4
                     (  -0.00000  -0.00000   ) 
                     (  -0.00000  -0.00000   ) 
                     (  -1.00000  -0.00000   ) 
                     (  -0.00000  -0.00000   ) 
                     (  -0.00000  -0.00000   ) 
                     (  -0.00000  -0.00000   ) 
                     (  -0.00000  -0.00000   ) 
                     (  -0.00000  -0.00000   ) 
                     (  -0.00000  -0.00000   ) 
  autoval = 0.1903E+00
     Irreps are as follows:

                     mode #   5
                     (  -0.00000  -0.00000   ) 
                     (  -0.00000  -0.00000   ) 
                     (  -0.00000  -0.00000   ) 
                     (  -0.00000   0.00000   ) 
                     (  -0.49820   0.00000   ) 
                     (   0.42513  -0.26657   ) 
                     (  -0.00000   0.00000   ) 
                     (  -0.49820   0.00000   ) 
                     (  -0.42513   0.26657   ) 
  autoval = 0.3928E+00
     Irreps are as follows:

                     mode #   6
                     (  -0.00000  -0.00000   ) 
                     (  -0.00000  -0.00000   ) 
                     (  -0.00000  -0.00000   ) 
                     (  -0.70711   0.00000   ) 
                     (   0.00000   0.00000   ) 
                     (  -0.00000   0.00000   ) 
                     (  -0.70711  -0.00000   ) 
                     (   0.00000   0.00000   ) 
                     (   0.00000   0.00000   ) 
  autoval = 0.6867E+00
     Irreps are as follows:

                     mode #   7
                     (  -0.00000  -0.00000   ) 
                     (  -0.00000  -0.00000   ) 
                     (  -0.00000  -0.00000   ) 
                     (  -0.00000   0.00000   ) 
                     (  -0.63495   0.00000   ) 
                     (  -0.15195  -0.27158   ) 
                     (  -0.00000   0.00000   ) 
                     (   0.63495   0.00000   ) 
                     (  -0.15195  -0.27158   ) 
  autoval = 0.9528E+00
     Irreps are as follows:

                     mode #   8
                     (   0.00000  -0.00000   ) 
                     (  -1.00000   0.00000   ) 
                     (   0.00000  -0.00000   ) 
                     (   0.00000  -0.00000   ) 
                     (   0.00000  -0.00000   ) 
                     (   0.00000  -0.00000   ) 
                     (   0.00000  -0.00000   ) 
                     (   0.00000  -0.00000   ) 
                     (   0.00000  -0.00000   ) 
  autoval = 0.3260E+01
     Irreps are as follows:

                     mode #   9
                     (  -1.00000  -0.00000   ) 
                     (  -0.00000  -0.00000   ) 
                     (  -0.00000  -0.00000   ) 
                     (  -0.00000  -0.00000   ) 
                     (  -0.00000  -0.00000   ) 
                     (  -0.00000  -0.00000   ) 
                     (  -0.00000  -0.00000   ) 
                     (  -0.00000  -0.00000   ) 
                     (  -0.00000  -0.00000   ) 
       2  -0.000000003  -0.192450106  -0.000000000       9
     No degeneracy
  autoval = -.8518E+00
     Irreps are as follows:

                     mode #   1
                     (  -0.00000  -0.00000   ) 
                     (  -0.00000  -0.00000   ) 
                     (  -0.00000  -0.00000   ) 
                     (  -0.70711  -0.00000   ) 
                     (  -0.00000  -0.00000   ) 
                     (  -0.00000   0.00000   ) 
                     (   0.70711   0.00000   ) 
                     (  -0.00000  -0.00000   ) 
                     (   0.00000  -0.00000   ) 
  autoval = -.2101E+00
     Irreps are as follows:

                     mode #   2
                     (  -0.00000   0.00000   ) 
                     (  -0.00000   0.00000   ) 
                     (  -0.00000   0.00000   ) 
                     (   0.00000   0.00000   ) 
                     (  -0.31120   0.00000   ) 
                     (   0.31003   0.55411   ) 
                     (   0.00000   0.00000   ) 
                     (   0.31120   0.00000   ) 
                     (   0.31003   0.55411   ) 
  autoval = -.2024E+00
     Irreps are as follows:

                     mode #   3
                     (  -0.00000  -0.00000   ) 
                     (  -0.00000  -0.00000   ) 
                     (  -0.00000  -0.00000   ) 
                     (  -0.00000   0.00000   ) 
                     (  -0.50179   0.00000   ) 
                     (  -0.42209   0.26467   ) 
                     (  -0.00000   0.00000   ) 
                     (  -0.50179  -0.00000   ) 
                     (   0.42209  -0.26467   ) 
  autoval = -.5953E-01
     Irreps are as follows:

                     mode #   4
                     (  -0.00000  -0.00000   ) 
                     (  -0.00000  -0.00000   ) 
                     (  -1.00000  -0.00000   ) 
                     (  -0.00000  -0.00000   ) 
                     (  -0.00000  -0.00000   ) 
                     (  -0.00000  -0.00000   ) 
                     (  -0.00000  -0.00000   ) 
                     (  -0.00000  -0.00000   ) 
                     (  -0.00000  -0.00000   ) 
  autoval = 0.1903E+00
     Irreps are as follows:

                     mode #   5
                     (  -0.00000  -0.00000   ) 
                     (  -0.00000  -0.00000   ) 
                     (  -0.00000  -0.00000   ) 
                     (  -0.00000   0.00000   ) 
                     (  -0.49820   0.00000   ) 
                     (   0.42513  -0.26657   ) 
                     (  -0.00000   0.00000   ) 
                     (  -0.49820   0.00000   ) 
                     (  -0.42513   0.26657   ) 
  autoval = 0.3928E+00
     Irreps are as follows:

                     mode #   6
                     (  -0.00000  -0.00000   ) 
                     (  -0.00000  -0.00000   ) 
                     (  -0.00000  -0.00000   ) 
                     (  -0.70711   0.00000   ) 
                     (   0.00000   0.00000   ) 
                     (  -0.00000   0.00000   ) 
                     (  -0.70711  -0.00000   ) 
                     (   0.00000   0.00000   ) 
                     (   0.00000   0.00000   ) 
  autoval = 0.6867E+00
     Irreps are as follows:

                     mode #   7
                     (  -0.00000  -0.00000   ) 
                     (  -0.00000  -0.00000   ) 
                     (  -0.00000  -0.00000   ) 
                     (  -0.00000   0.00000   ) 
                     (  -0.63495   0.00000   ) 
                     (  -0.15195  -0.27158   ) 
                     (  -0.00000   0.00000   ) 
                     (   0.63495   0.00000   ) 
                     (  -0.15195  -0.27158   ) 
  autoval = 0.9528E+00
     Irreps are as follows:

                     mode #   8
                     (   0.00000  -0.00000   ) 
                     (  -1.00000   0.00000   ) 
                     (   0.00000  -0.00000   ) 
                     (   0.00000  -0.00000   ) 
                     (   0.00000  -0.00000   ) 
                     (   0.00000  -0.00000   ) 
                     (   0.00000  -0.00000   ) 
                     (   0.00000  -0.00000   ) 
                     (   0.00000  -0.00000   ) 
  autoval = 0.3260E+01
     Irreps are as follows:

                     mode #   9
                     (  -1.00000  -0.00000   ) 
                     (  -0.00000  -0.00000   ) 
                     (  -0.00000  -0.00000   ) 
                     (  -0.00000  -0.00000   ) 
                     (  -0.00000  -0.00000   ) 
                     (  -0.00000  -0.00000   ) 
                     (  -0.00000  -0.00000   ) 
                     (  -0.00000  -0.00000   ) 
                     (  -0.00000  -0.00000   ) 
       3  -0.000000006  -0.384900212  -0.000000000       9
     No degeneracy
  autoval = -.8518E+00
     Irreps are as follows:

                     mode #   1
                     (  -0.00000  -0.00000   ) 
                     (  -0.00000  -0.00000   ) 
                     (  -0.00000  -0.00000   ) 
                     (  -0.70711  -0.00000   ) 
                     (   0.00000   0.00000   ) 
                     (  -0.00000  -0.00000   ) 
                     (   0.70711  -0.00000   ) 
                     (   0.00000  -0.00000   ) 
                     (  -0.00000  -0.00000   ) 
  autoval = -.1724E+00
     Irreps are as follows:

                     mode #   2
                     (  -0.00000  -0.00000   ) 
                     (  -0.00000  -0.00000   ) 
                     (  -0.00000  -0.00000   ) 
                     (  -0.00000  -0.00000   ) 
                     (  -0.50211  -0.00000   ) 
                     (  -0.49788  -0.00000   ) 
                     (  -0.00000  -0.00000   ) 
                     (  -0.50211  -0.00000   ) 
                     (   0.49788  -0.00000   ) 
  autoval = -.8634E-01
     Irreps are as follows:

                     mode #   3
                     (  -0.00000   0.00000   ) 
                     (  -0.00000   0.00000   ) 
                     (  -0.00000   0.00000   ) 
                     (   0.00000   0.00000   ) 
                     (  -0.19614  -0.00000   ) 
                     (   0.67936   0.00000   ) 
                     (   0.00000   0.00000   ) 
                     (   0.19614   0.00000   ) 
                     (   0.67936   0.00000   ) 
  autoval = -.5953E-01
     Irreps are as follows:

                     mode #   4
                     (  -0.00000  -0.00000   ) 
                     (  -0.00000  -0.00000   ) 
                     (  -1.00000  -0.00000   ) 
                     (  -0.00000  -0.00000   ) 
                     (  -0.00000  -0.00000   ) 
                     (  -0.00000  -0.00000   ) 
                     (  -0.00000  -0.00000   ) 
                     (  -0.00000  -0.00000   ) 
                     (  -0.00000  -0.00000   ) 
  autoval = 0.1603E+00
     Irreps are as follows:

                     mode #   5
                     (  -0.00000  -0.00000   ) 
                     (  -0.00000  -0.00000   ) 
                     (  -0.00000  -0.00000   ) 
                     (  -0.00000   0.00000   ) 
                     (  -0.49788  -0.00000   ) 
                     (   0.50211  -0.00000   ) 
                     (   0.00000  -0.00000   ) 
                     (  -0.49788   0.00000   ) 
                     (  -0.50211  -0.00000   ) 
  autoval = 0.3928E+00
     Irreps are as follows:

                     mode #   6
                     (  -0.00000  -0.00000   ) 
                     (  -0.00000  -0.00000   ) 
                     (  -0.00000  -0.00000   ) 
                     (  -0.70711  -0.00000   ) 
                     (   0.00000  -0.00000   ) 
                     (   0.00000  -0.00000   ) 
                     (  -0.70711  -0.00000   ) 
                     (  -0.00000  -0.00000   ) 
                     (  -0.00000  -0.00000   ) 
  autoval = 0.5630E+00
     Irreps are as follows:

                     mode #   7
                     (   0.00000  -0.00000   ) 
                     (   0.00000  -0.00000   ) 
                     (   0.00000  -0.00000   ) 
                     (   0.00000  -0.00000   ) 
                     (  -0.67936  -0.00000   ) 
                     (  -0.19614  -0.00000   ) 
                     (  -0.00000  -0.00000   ) 
                     (   0.67936  -0.00000   ) 
                     (  -0.19614  -0.00000   ) 
  autoval = 0.9528E+00
     Irreps are as follows:

                     mode #   8
                     (  -0.00000  -0.00000   ) 
                     (  -1.00000  -0.00000   ) 
                     (  -0.00000  -0.00000   ) 
                     (  -0.00000  -0.00000   ) 
                     (  -0.00000  -0.00000   ) 
                     (  -0.00000  -0.00000   ) 
                     (  -0.00000  -0.00000   ) 
                     (  -0.00000  -0.00000   ) 
                     (  -0.00000  -0.00000   ) 
  autoval = 0.3260E+01
     Irreps are as follows:

                     mode #   9
                     (  -1.00000  -0.00000   ) 
                     (  -0.00000  -0.00000   ) 
                     (  -0.00000  -0.00000   ) 
                     (  -0.00000  -0.00000   ) 
                     (  -0.00000  -0.00000   ) 
                     (  -0.00000  -0.00000   ) 
                     (  -0.00000  -0.00000   ) 
                     (  -0.00000  -0.00000   ) 
                     (  -0.00000  -0.00000   ) 
       4   0.000000009   0.577350318  -0.000000000       9
     No degeneracy
  autoval = -.2568E+01
     Irreps are as follows:

                     mode #   1
                     (   0.00000  -0.00000   ) 
                     (   0.00000  -0.00000   ) 
                     (   0.00000  -0.00000   ) 
                     (  -0.48132  -0.00000   ) 
                     (   0.41948  -0.30226   ) 
                     (   0.03116   0.00645   ) 
                     (  -0.48132   0.00000   ) 
                     (   0.41948  -0.30226   ) 
                     (  -0.03116  -0.00645   ) 
  autoval = -.1842E+01
     Irreps are as follows:

                     mode #   2
                     (  -0.00000  -0.00000   ) 
                     (  -0.00000  -0.00000   ) 
                     (  -0.00000  -0.00000   ) 
                     (  -0.58852  -0.00000   ) 
                     (   0.36229   0.13651   ) 
                     (  -0.01515  -0.05943   ) 
                     (   0.58852  -0.00000   ) 
                     (  -0.36229  -0.13651   ) 
                     (  -0.01515  -0.05943   ) 
  autoval = -.8864E-01
     Irreps are as follows:

                     mode #   3
                     (  -0.00000   0.00000   ) 
                     (  -0.00000   0.00000   ) 
                     (  -0.00000   0.00000   ) 
                     (  -0.12776  -0.00000   ) 
                     (  -0.08285  -0.02186   ) 
                     (   0.11634   0.68029   ) 
                     (   0.12776  -0.00000   ) 
                     (   0.08285   0.02186   ) 
                     (   0.11634   0.68029   ) 
  autoval = -.5953E-01
     Irreps are as follows:

                     mode #   4
                     (  -0.00000  -0.00000   ) 
                     (  -0.00000  -0.00000   ) 
                     (  -1.00000  -0.00000   ) 
                     (  -0.00000  -0.00000   ) 
                     (  -0.00000  -0.00000   ) 
                     (  -0.00000  -0.00000   ) 
                     (  -0.00000  -0.00000   ) 
                     (  -0.00000  -0.00000   ) 
                     (  -0.00000  -0.00000   ) 
  autoval = -.2822E-01
     Irreps are as follows:

                     mode #   5
                     (   0.00000  -0.00000   ) 
                     (   0.00000  -0.00000   ) 
                     (   0.00000  -0.00000   ) 
                     (  -0.04993   0.00000   ) 
                     (  -0.05616  -0.01196   ) 
                     (  -0.26605   0.65071   ) 
                     (  -0.04993   0.00000   ) 
                     (  -0.05616  -0.01196   ) 
                     (   0.26605  -0.65071   ) 
  autoval = 0.9025E+00
     Irreps are as follows:

                     mode #   6
                     (  -0.14455  -0.00000   ) 
                     (   0.30581   0.94106   ) 
                     (   0.00000  -0.00000   ) 
                     (   0.00000  -0.00000   ) 
                     (   0.00000  -0.00000   ) 
                     (   0.00000  -0.00000   ) 
                     (   0.00000  -0.00000   ) 
                     (   0.00000  -0.00000   ) 
                     (   0.00000  -0.00000   ) 
  autoval = 0.1556E+01
     Irreps are as follows:

                     mode #   7
                     (  -0.00000  -0.00000   ) 
                     (  -0.00000  -0.00000   ) 
                     (  -0.00000  -0.00000   ) 
                     (  -0.37057   0.00000   ) 
                     (  -0.54679  -0.20926   ) 
                     (  -0.01606  -0.14016   ) 
                     (   0.37057   0.00000   ) 
                     (   0.54679   0.20926   ) 
                     (  -0.01606  -0.14016   ) 
  autoval = 0.2977E+01
     Irreps are as follows:

                     mode #   8
                     (  -0.00000  -0.00000   ) 
                     (  -0.00000  -0.00000   ) 
                     (  -0.00000  -0.00000   ) 
                     (  -0.51560   0.00000   ) 
                     (  -0.38615   0.28332   ) 
                     (  -0.00332  -0.06904   ) 
                     (  -0.51560  -0.00000   ) 
                     (  -0.38615   0.28332   ) 
                     (   0.00332   0.06904   ) 
  autoval = 0.3310E+01
     Irreps are as follows:

                     mode #   9
                     (  -0.98950   0.00000   ) 
                     (  -0.04467  -0.13747   ) 
                     (  -0.00000  -0.00000   ) 
                     (  -0.00000  -0.00000   ) 
                     (  -0.00000  -0.00000   ) 
                     (  -0.00000  -0.00000   ) 
                     (  -0.00000  -0.00000   ) 
                     (  -0.00000  -0.00000   ) 
                     (  -0.00000  -0.00000   ) 
       5  -0.166666687  -0.288675159  -0.000000000       9
     No degeneracy
  autoval = -.2568E+01
     Irreps are as follows:

                     mode #   1
                     (   0.00000  -0.00000   ) 
                     (   0.00000  -0.00000   ) 
                     (   0.00000  -0.00000   ) 
                     (  -0.48132  -0.00000   ) 
                     (   0.41948  -0.30226   ) 
                     (   0.03116   0.00645   ) 
                     (  -0.48132   0.00000   ) 
                     (   0.41948  -0.30226   ) 
                     (  -0.03116  -0.00645   ) 
  autoval = -.1842E+01
     Irreps are as follows:

                     mode #   2
                     (  -0.00000  -0.00000   ) 
                     (  -0.00000  -0.00000   ) 
                     (  -0.00000  -0.00000   ) 
                     (  -0.58852  -0.00000   ) 
                     (   0.36229   0.13651   ) 
                     (  -0.01515  -0.05943   ) 
                     (   0.58852  -0.00000   ) 
                     (  -0.36229  -0.13651   ) 
                     (  -0.01515  -0.05943   ) 
  autoval = -.8864E-01
     Irreps are as follows:

                     mode #   3
                     (  -0.00000   0.00000   ) 
                     (  -0.00000   0.00000   ) 
                     (  -0.00000   0.00000   ) 
                     (  -0.12776  -0.00000   ) 
                     (  -0.08285  -0.02186   ) 
                     (   0.11634   0.68029   ) 
                     (   0.12776  -0.00000   ) 
                     (   0.08285   0.02186   ) 
                     (   0.11634   0.68029   ) 
  autoval = -.5953E-01
     Irreps are as follows:

                     mode #   4
                     (  -0.00000  -0.00000   ) 
                     (  -0.00000  -0.00000   ) 
                     (  -1.00000  -0.00000   ) 
                     (  -0.00000  -0.00000   ) 
                     (  -0.00000  -0.00000   ) 
                     (  -0.00000  -0.00000   ) 
                     (  -0.00000  -0.00000   ) 
                     (  -0.00000  -0.00000   ) 
                     (  -0.00000  -0.00000   ) 
  autoval = -.2822E-01
     Irreps are as follows:

                     mode #   5
                     (   0.00000  -0.00000   ) 
                     (   0.00000  -0.00000   ) 
                     (   0.00000  -0.00000   ) 
                     (  -0.04993   0.00000   ) 
                     (  -0.05616  -0.01196   ) 
                     (  -0.26605   0.65071   ) 
                     (  -0.04993   0.00000   ) 
                     (  -0.05616  -0.01196   ) 
                     (   0.26605  -0.65071   ) 
  autoval = 0.9025E+00
     Irreps are as follows:

                     mode #   6
                     (  -0.14455  -0.00000   ) 
                     (   0.30581   0.94106   ) 
                     (   0.00000  -0.00000   ) 
                     (   0.00000  -0.00000   ) 
                     (   0.00000  -0.00000   ) 
                     (   0.00000  -0.00000   ) 
                     (   0.00000  -0.00000   ) 
                     (   0.00000  -0.00000   ) 
                     (   0.00000  -0.00000   ) 
  autoval = 0.1556E+01
     Irreps are as follows:

                     mode #   7
                     (  -0.00000  -0.00000   ) 
                     (  -0.00000  -0.00000   ) 
                     (  -0.00000  -0.00000   ) 
                     (  -0.37057   0.00000   ) 
                     (  -0.54679  -0.20926   ) 
                     (  -0.01606  -0.14016   ) 
                     (   0.37057   0.00000   ) 
                     (   0.54679   0.20926   ) 
                     (  -0.01606  -0.14016   ) 
  autoval = 0.2977E+01
     Irreps are as follows:

                     mode #   8
                     (  -0.00000  -0.00000   ) 
                     (  -0.00000  -0.00000   ) 
                     (  -0.00000  -0.00000   ) 
                     (  -0.51560   0.00000   ) 
                     (  -0.38615   0.28332   ) 
                     (  -0.00332  -0.06904   ) 
                     (  -0.51560  -0.00000   ) 
                     (  -0.38615   0.28332   ) 
                     (   0.00332   0.06904   ) 
  autoval = 0.3310E+01
     Irreps are as follows:

                     mode #   9
                     (  -0.98950   0.00000   ) 
                     (  -0.04467  -0.13747   ) 
                     (  -0.00000  -0.00000   ) 
                     (  -0.00000  -0.00000   ) 
                     (  -0.00000  -0.00000   ) 
                     (  -0.00000  -0.00000   ) 
                     (  -0.00000  -0.00000   ) 
                     (  -0.00000  -0.00000   ) 
                     (  -0.00000  -0.00000   ) 
       6  -0.166666701  -0.481125176  -0.000000000       9
     No degeneracy
  autoval = -.1425E+01
     Irreps are as follows:

                     mode #   1
                     (  -0.00000   0.00000   ) 
                     (  -0.00000   0.00000   ) 
                     (  -0.00000   0.00000   ) 
                     (  -0.50000   0.00000   ) 
                     (  -0.00000  -0.50000   ) 
                     (  -0.00000   0.00000   ) 
                     (  -0.50000   0.00000   ) 
                     (   0.00000  -0.50000   ) 
                     (   0.00000   0.00000   ) 
  autoval = -.7062E+00
     Irreps are as follows:

                     mode #   2
                     (   0.00000  -0.00000   ) 
                     (   0.00000  -0.00000   ) 
                     (   0.00000  -0.00000   ) 
                     (  -0.50000  -0.00000   ) 
                     (   0.00000   0.50000   ) 
                     (  -0.00000   0.00000   ) 
                     (   0.50000  -0.00000   ) 
                     (   0.00000  -0.50000   ) 
                     (  -0.00000   0.00000   ) 
  autoval = -.5953E-01
     Irreps are as follows:

                     mode #   3
                     (  -0.00000  -0.00000   ) 
                     (  -0.00000  -0.00000   ) 
                     (  -1.00000  -0.00000   ) 
                     (  -0.00000  -0.00000   ) 
                     (  -0.00000  -0.00000   ) 
                     (  -0.00000  -0.00000   ) 
                     (  -0.00000  -0.00000   ) 
                     (  -0.00000  -0.00000   ) 
                     (  -0.00000  -0.00000   ) 
  autoval = -.3638E-01
     Irreps are as follows:

                     mode #   4
                     (  -0.00000  -0.00000   ) 
                     (  -0.00000  -0.00000   ) 
                     (  -0.00000  -0.00000   ) 
                     (   0.00000  -0.00000   ) 
                     (   0.00000   0.00000   ) 
                     (  -0.70711  -0.00000   ) 
                     (  -0.00000   0.00000   ) 
                     (  -0.00000  -0.00000   ) 
                     (  -0.70711  -0.00000   ) 
  autoval = -.4644E-02
     Irreps are as follows:

                     mode #   5
                     (  -0.00000   0.00000   ) 
                     (  -0.00000   0.00000   ) 
                     (  -0.00000   0.00000   ) 
                     (   0.00000  -0.00000   ) 
                     (   0.00000   0.00000   ) 
                     (  -0.70711  -0.00000   ) 
                     (  -0.00000   0.00000   ) 
                     (  -0.00000  -0.00000   ) 
                     (   0.70711   0.00000   ) 
  autoval = 0.3674E+00
     Irreps are as follows:

                     mode #   6
                     (   0.00000  -0.00000   ) 
                     (   0.00000  -0.00000   ) 
                     (   0.00000  -0.00000   ) 
                     (  -0.50000  -0.00000   ) 
                     (   0.00000  -0.50000   ) 
                     (  -0.00000  -0.00000   ) 
                     (   0.50000   0.00000   ) 
                     (  -0.00000   0.50000   ) 
                     (   0.00000  -0.00000   ) 
  autoval = 0.1779E+01
     Irreps are as follows:

                     mode #   7
                     (  -0.70711  -0.00000   ) 
                     (  -0.00000   0.70711   ) 
                     (  -0.00000  -0.00000   ) 
                     (  -0.00000  -0.00000   ) 
                     (  -0.00000  -0.00000   ) 
                     (  -0.00000  -0.00000   ) 
                     (  -0.00000  -0.00000   ) 
                     (  -0.00000  -0.00000   ) 
                     (  -0.00000  -0.00000   ) 
  autoval = 0.1810E+01
     Irreps are as follows:

                     mode #   8
                     (  -0.00000   0.00000   ) 
                     (  -0.00000   0.00000   ) 
                     (  -0.00000   0.00000   ) 
                     (  -0.50000   0.00000   ) 
                     (   0.00000   0.50000   ) 
                     (  -0.00000  -0.00000   ) 
                     (  -0.50000   0.00000   ) 
                     (   0.00000   0.50000   ) 
                     (   0.00000  -0.00000   ) 
  autoval = 0.2434E+01
     Irreps are as follows:

                     mode #   9
                     (  -0.70711   0.00000   ) 
                     (   0.00000  -0.70711   ) 
                     (  -0.00000  -0.00000   ) 
                     (  -0.00000  -0.00000   ) 
                     (  -0.00000  -0.00000   ) 
                     (  -0.00000  -0.00000   ) 
                     (  -0.00000  -0.00000   ) 
                     (  -0.00000  -0.00000   ) 
                     (  -0.00000  -0.00000   ) 
       7  -0.333333373  -0.577350318  -0.000000000       9
     No degeneracy

     Saving dvscf to file. Distribute only q points, not irreducible representations.

     Calculation of q =   -0.0000000  -0.0000000  -0.0000000

     default                                                                    

     bravais-lattice index     =            4
     lattice parameter (alat)  =       5.9477  a.u.
     unit-cell volume          =    1225.4506 (a.u.)^3
     number of atoms/cell      =            3
     number of atomic types    =            2
     kinetic-energy cut-off    =     100.0000  Ry
     charge density cut-off    =     800.0000  Ry
     convergence threshold     =      1.0E-12
     beta                      =       0.1000
     number of iterations used =            4
     Exchange-correlation= PBESOL
                           (   1   4  10   8   0   0   0)


     celldm(1)=    5.94775  celldm(2)=    0.00000  celldm(3)=    6.72523
     celldm(4)=    0.00000  celldm(5)=    0.00000  celldm(6)=    0.00000

     crystal axes: (cart. coord. in units of alat)
               a(1) = (  1.0000  0.0000  0.0000 )  
               a(2) = ( -0.5000  0.8660  0.0000 )  
               a(3) = (  0.0000  0.0000  6.7252 )  

     reciprocal axes: (cart. coord. in units 2 pi/alat)
               b(1) = (  1.0000  0.5774 -0.0000 )  
               b(2) = (  0.0000  1.1547  0.0000 )  
               b(3) = (  0.0000 -0.0000  0.1487 )  


     Atoms inside the unit cell: 

     Cartesian axes

     site n.  atom      mass           positions (alat units)
        1  Mo     95.9500   tau(    1) = (   -0.00000    0.57735    0.00000  )
        2  S      32.0650   tau(    2) = (    0.50000    0.28868    0.49450  )
        3  S      32.0650   tau(    3) = (    0.50000    0.28868   -0.49450  )

     Computing dynamical matrix for 
                    q = (  -0.0000000  -0.0000000  -0.0000000 )

     13 Sym.Ops. (with q -> -q+G )

                                    s                        frac. trans.

      isym =  1     identity                                     

 cryst.   s( 1) = (     1          0          0      )
                  (     0          1          0      )
                  (     0          0          1      )

 cart.    s( 1) = (  1.0000000  0.0000000  0.0000000 )
                  (  0.0000000  1.0000000  0.0000000 )
                  (  0.0000000  0.0000000  1.0000000 )


      isym =  2     inv. 180 deg rotation - cart. axis [0,0,1]   

 cryst.   s( 2) = (     1          0          0      )
                  (     0          1          0      )
                  (     0          0         -1      )

 cart.    s( 2) = (  1.0000000  0.0000000  0.0000000 )
                  (  0.0000000  1.0000000  0.0000000 )
                  (  0.0000000  0.0000000 -1.0000000 )


      isym =  3     120 deg rotation - cryst. axis [0,0,1]       

 cryst.   s( 3) = (     0          1          0      )
                  (    -1         -1          0      )
                  (     0          0          1      )

 cart.    s( 3) = ( -0.5000000 -0.8660254  0.0000000 )
                  (  0.8660254 -0.5000000  0.0000000 )
                  (  0.0000000  0.0000000  1.0000000 )


      isym =  4     120 deg rotation - cryst. axis [0,0,-1]      

 cryst.   s( 4) = (    -1         -1          0      )
                  (     1          0          0      )
                  (     0          0          1      )

 cart.    s( 4) = ( -0.5000000  0.8660254  0.0000000 )
                  ( -0.8660254 -0.5000000  0.0000000 )
                  (  0.0000000  0.0000000  1.0000000 )


      isym =  5     inv.  60 deg rotation - cryst. axis [0,0,1]  

 cryst.   s( 5) = (    -1         -1          0      )
                  (     1          0          0      )
                  (     0          0         -1      )

 cart.    s( 5) = ( -0.5000000  0.8660254  0.0000000 )
                  ( -0.8660254 -0.5000000  0.0000000 )
                  (  0.0000000  0.0000000 -1.0000000 )


      isym =  6     inv.  60 deg rotation - cryst. axis [0,0,-1] 

 cryst.   s( 6) = (     0          1          0      )
                  (    -1         -1          0      )
                  (     0          0         -1      )

 cart.    s( 6) = ( -0.5000000 -0.8660254  0.0000000 )
                  (  0.8660254 -0.5000000  0.0000000 )
                  (  0.0000000  0.0000000 -1.0000000 )


      isym =  7     180 deg rotation - cart. axis [0,1,0]        

 cryst.   s( 7) = (    -1          0          0      )
                  (     1          1          0      )
                  (     0          0         -1      )

 cart.    s( 7) = ( -1.0000000  0.0000000  0.0000000 )
                  (  0.0000000  1.0000000  0.0000000 )
                  (  0.0000000  0.0000000 -1.0000000 )


      isym =  8     inv. 180 deg rotation - cart. axis [1,0,0]   

 cryst.   s( 8) = (    -1          0          0      )
                  (     1          1          0      )
                  (     0          0          1      )

 cart.    s( 8) = ( -1.0000000  0.0000000  0.0000000 )
                  (  0.0000000  1.0000000  0.0000000 )
                  (  0.0000000  0.0000000  1.0000000 )


      isym =  9     180 deg rotation - cryst. axis [1,-1,0]      

 cryst.   s( 9) = (     0         -1          0      )
                  (    -1          0          0      )
                  (     0          0         -1      )

 cart.    s( 9) = (  0.5000000 -0.8660254  0.0000000 )
                  ( -0.8660254 -0.5000000  0.0000000 )
                  (  0.0000000  0.0000000 -1.0000000 )


      isym = 10     180 deg rotation - cryst. axis [2,1,0]       

 cryst.   s(10) = (     1          1          0      )
                  (     0         -1          0      )
                  (     0          0         -1      )

 cart.    s(10) = (  0.5000000  0.8660254  0.0000000 )
                  (  0.8660254 -0.5000000  0.0000000 )
                  (  0.0000000  0.0000000 -1.0000000 )


      isym = 11     inv. 180 deg rotation - cryst. axis [0,1,0]  

 cryst.   s(11) = (     1          1          0      )
                  (     0         -1          0      )
                  (     0          0          1      )

 cart.    s(11) = (  0.5000000  0.8660254  0.0000000 )
                  (  0.8660254 -0.5000000  0.0000000 )
                  (  0.0000000  0.0000000  1.0000000 )


      isym = 12     inv. 180 deg rotation - cryst. axis [1,1,0]  

 cryst.   s(12) = (     0         -1          0      )
                  (    -1          0          0      )
                  (     0          0          1      )

 cart.    s(12) = (  0.5000000 -0.8660254  0.0000000 )
                  ( -0.8660254 -0.5000000  0.0000000 )
                  (  0.0000000  0.0000000  1.0000000 )


     This transformation sends q -> -q+G

      isym = 13     identity                                     

 cryst.   s(13) = (     1          0          0      )
                  (     0          1          0      )
                  (     0          0          1      )

 cart.    s(13) = (  1.0000000  0.0000000  0.0000000 )
                  (  0.0000000  1.0000000  0.0000000 )
                  (  0.0000000  0.0000000  1.0000000 )


     G cutoff =  716.8618  (   7312 G-vectors)     FFT grid: ( 60, 60,420)
     G cutoff =  358.4309  (   2568 G-vectors)  smooth grid: ( 48, 48,300)

     number of k points=    37  Marzari-Vanderbilt smearing, width (Ry)=  0.0010
                       cart. coord. in units 2pi/alat
        k(    1) = (   0.0000000   0.0000000   0.0000000), wk =   0.0061728
        k(    2) = (   0.0000000   0.0641500   0.0000000), wk =   0.0370370
        k(    3) = (   0.0000000   0.1283001   0.0000000), wk =   0.0370370
        k(    4) = (   0.0000000   0.1924501   0.0000000), wk =   0.0370370
        k(    5) = (   0.0000000   0.2566001   0.0000000), wk =   0.0370370
        k(    6) = (   0.0000000   0.3207501   0.0000000), wk =   0.0370370
        k(    7) = (   0.0000000   0.3849002   0.0000000), wk =   0.0370370
        k(    8) = (   0.0000000   0.4490502   0.0000000), wk =   0.0370370
        k(    9) = (   0.0000000   0.5132002   0.0000000), wk =   0.0370370
        k(   10) = (   0.0000000  -0.5773503   0.0000000), wk =   0.0185185
        k(   11) = (   0.0555556   0.0962250   0.0000000), wk =   0.0370370
        k(   12) = (   0.0555556   0.1603751   0.0000000), wk =   0.0740741
        k(   13) = (   0.0555556   0.2245251   0.0000000), wk =   0.0740741
        k(   14) = (   0.0555556   0.2886751   0.0000000), wk =   0.0740741
        k(   15) = (   0.0555556   0.3528252   0.0000000), wk =   0.0740741
        k(   16) = (   0.0555556   0.4169752   0.0000000), wk =   0.0740741
        k(   17) = (   0.0555556   0.4811252   0.0000000), wk =   0.0740741
        k(   18) = (   0.0555556   0.5452753   0.0000000), wk =   0.0740741
        k(   19) = (   0.1111111   0.1924501   0.0000000), wk =   0.0370370
        k(   20) = (   0.1111111   0.2566001   0.0000000), wk =   0.0740741
        k(   21) = (   0.1111111   0.3207501   0.0000000), wk =   0.0740741
        k(   22) = (   0.1111111   0.3849002   0.0000000), wk =   0.0740741
        k(   23) = (   0.1111111   0.4490502   0.0000000), wk =   0.0740741
        k(   24) = (   0.1111111   0.5132002   0.0000000), wk =   0.0740741
        k(   25) = (   0.1111111   0.5773503   0.0000000), wk =   0.0370370
        k(   26) = (   0.1666667   0.2886751   0.0000000), wk =   0.0370370
        k(   27) = (   0.1666667   0.3528252   0.0000000), wk =   0.0740741
        k(   28) = (   0.1666667   0.4169752   0.0000000), wk =   0.0740741
        k(   29) = (   0.1666667   0.4811252   0.0000000), wk =   0.0740741
        k(   30) = (   0.1666667   0.5452753   0.0000000), wk =   0.0740741
        k(   31) = (   0.2222222   0.3849002   0.0000000), wk =   0.0370370
        k(   32) = (   0.2222222   0.4490502   0.0000000), wk =   0.0740741
        k(   33) = (   0.2222222   0.5132002   0.0000000), wk =   0.0740741
        k(   34) = (   0.2222222   0.5773503   0.0000000), wk =   0.0370370
        k(   35) = (   0.2777778   0.4811252   0.0000000), wk =   0.0370370
        k(   36) = (   0.2777778   0.5452753   0.0000000), wk =   0.0740741
        k(   37) = (   0.3333333   0.5773503   0.0000000), wk =   0.0123457

                       cryst. coord.
        k(    1) = (   0.0000000   0.0000000   0.0000000), wk =   0.0061728
        k(    2) = (   0.0000000   0.0555556   0.0000000), wk =   0.0370370
        k(    3) = (   0.0000000   0.1111111   0.0000000), wk =   0.0370370
        k(    4) = (   0.0000000   0.1666667   0.0000000), wk =   0.0370370
        k(    5) = (   0.0000000   0.2222222   0.0000000), wk =   0.0370370
        k(    6) = (   0.0000000   0.2777778   0.0000000), wk =   0.0370370
        k(    7) = (   0.0000000   0.3333333   0.0000000), wk =   0.0370370
        k(    8) = (   0.0000000   0.3888889   0.0000000), wk =   0.0370370
        k(    9) = (   0.0000000   0.4444444   0.0000000), wk =   0.0370370
        k(   10) = (   0.0000000  -0.5000000   0.0000000), wk =   0.0185185
        k(   11) = (   0.0555556   0.0555556   0.0000000), wk =   0.0370370
        k(   12) = (   0.0555556   0.1111111   0.0000000), wk =   0.0740741
        k(   13) = (   0.0555556   0.1666667   0.0000000), wk =   0.0740741
        k(   14) = (   0.0555556   0.2222222   0.0000000), wk =   0.0740741
        k(   15) = (   0.0555556   0.2777778   0.0000000), wk =   0.0740741
        k(   16) = (   0.0555556   0.3333333   0.0000000), wk =   0.0740741
        k(   17) = (   0.0555556   0.3888889   0.0000000), wk =   0.0740741
        k(   18) = (   0.0555556   0.4444444   0.0000000), wk =   0.0740741
        k(   19) = (   0.1111111   0.1111111   0.0000000), wk =   0.0370370
        k(   20) = (   0.1111111   0.1666667   0.0000000), wk =   0.0740741
        k(   21) = (   0.1111111   0.2222222   0.0000000), wk =   0.0740741
        k(   22) = (   0.1111111   0.2777778   0.0000000), wk =   0.0740741
        k(   23) = (   0.1111111   0.3333333   0.0000000), wk =   0.0740741
        k(   24) = (   0.1111111   0.3888889   0.0000000), wk =   0.0740741
        k(   25) = (   0.1111111   0.4444444   0.0000000), wk =   0.0370370
        k(   26) = (   0.1666667   0.1666667   0.0000000), wk =   0.0370370
        k(   27) = (   0.1666667   0.2222222   0.0000000), wk =   0.0740741
        k(   28) = (   0.1666667   0.2777778   0.0000000), wk =   0.0740741
        k(   29) = (   0.1666667   0.3333333   0.0000000), wk =   0.0740741
        k(   30) = (   0.1666667   0.3888889   0.0000000), wk =   0.0740741
        k(   31) = (   0.2222222   0.2222222   0.0000000), wk =   0.0370370
        k(   32) = (   0.2222222   0.2777778   0.0000000), wk =   0.0740741
        k(   33) = (   0.2222222   0.3333333   0.0000000), wk =   0.0740741
        k(   34) = (   0.2222222   0.3888889   0.0000000), wk =   0.0370370
        k(   35) = (   0.2777778   0.2777778   0.0000000), wk =   0.0370370
        k(   36) = (   0.2777778   0.3333333   0.0000000), wk =   0.0740741
        k(   37) = (   0.3333333   0.3333333   0.0000000), wk =   0.0123457

     PseudoPot. # 1 for Mo read from file:
     ../pseudo/Mo.pbesol.dojo.upf
     MD5 check sum: c40353276b9086539cda6b9e5a66907b
     Pseudo is Norm-conserving + core correction, Zval = 14.0
     Generated using ONCVPSP code by D. R. Hamann
     Using radial grid of 1640 points,  6 beta functions with: 
                l(1) =   0
                l(2) =   0
                l(3) =   1
                l(4) =   1
                l(5) =   2
                l(6) =   2

     PseudoPot. # 2 for S  read from file:
     ../pseudo/S.pbesol.dojo.upf
     MD5 check sum: 501737efeeef1fb1c631cda521d4e019
     Pseudo is Norm-conserving + core correction, Zval =  6.0
     Generated using ONCVPSP code by D. R. Hamann
     Using radial grid of 1146 points,  6 beta functions with: 
                l(1) =   0
                l(2) =   0
                l(3) =   1
                l(4) =   1
                l(5) =   2
                l(6) =   2

     point group D_3h (-62m)
     there are  6 classes
     the character table:

       E     2C3   3C2   s_h   2S3   3s_v 
A'_1   1.00  1.00  1.00  1.00  1.00  1.00
A'_2   1.00  1.00 -1.00  1.00  1.00 -1.00
E'     2.00 -1.00  0.00  2.00 -1.00  0.00
A''1   1.00  1.00  1.00 -1.00 -1.00 -1.00
A''2   1.00  1.00 -1.00 -1.00 -1.00  1.00
E''    2.00 -1.00  0.00 -2.00  1.00  0.00

     the symmetry operations in each class and the name of the first element:

     E        1
                                                                 
     2C3      3    4
                                                                 
     3C2      7   10    9
                                                                 
     s_h      2
                                                                 
     2S3      5    6
                                                                 
     3s_v     8   11   12
                                                                 


     Atomic displacements:
     There are    6 irreducible representations

     Representation     1      1 modes -  To be done
     Irreps are as follows:

                     mode #   1
                     (  -0.00000  -0.00000   ) 
                     (  -0.00000  -0.00000   ) 
                     (  -0.00000  -0.00000   ) 
                     (  -0.00000  -0.00000   ) 
                     (  -0.00000  -0.00000   ) 
                     (  -0.70711  -0.00000   ) 
                     (  -0.00000  -0.00000   ) 
                     (   0.00000  -0.00000   ) 
                     (   0.70711  -0.00000   ) 

     Representation     2      2 modes -  To be done
     Irreps are as follows:

           mode #   2                           mode #   3
           (  -0.00000  -0.00000   )            (  -0.00000  -0.00000   ) 
           (  -0.00000  -0.00000   )            (  -0.00000  -0.00000   ) 
           (  -0.00000  -0.00000   )            (  -0.00000  -0.00000   ) 
           (  -0.00168  -0.00000   )            (  -0.70710  -0.00000   ) 
           (   0.70710  -0.00000   )            (  -0.00168  -0.00000   ) 
           (   0.00000  -0.00000   )            (  -0.00000  -0.00000   ) 
           (  -0.00168  -0.00000   )            (  -0.70710  -0.00000   ) 
           (   0.70710  -0.00000   )            (  -0.00168  -0.00000   ) 
           (   0.00000  -0.00000   )            (  -0.00000  -0.00000   ) 

     Representation     3      2 modes -  To be done
     Irreps are as follows:

           mode #   4                           mode #   5
           (  -0.00022  -0.00000   )            (  -1.00000  -0.00000   ) 
           (   1.00000  -0.00000   )            (  -0.00022  -0.00000   ) 
           (  -0.00000  -0.00000   )            (  -0.00000   0.00000   ) 
           (  -0.00000  -0.00000   )            (  -0.00000   0.00000   ) 
           (  -0.00000  -0.00000   )            (  -0.00000   0.00000   ) 
           (  -0.00000  -0.00000   )            (  -0.00000   0.00000   ) 
           (  -0.00000  -0.00000   )            (  -0.00000   0.00000   ) 
           (  -0.00000  -0.00000   )            (  -0.00000   0.00000   ) 
           (  -0.00000  -0.00000   )            (  -0.00000   0.00000   ) 

     Representation     4      1 modes -  To be done
     Irreps are as follows:

                     mode #   6
                     (  -0.00000  -0.00000   ) 
                     (  -0.00000  -0.00000   ) 
                     (  -1.00000  -0.00000   ) 
                     (  -0.00000  -0.00000   ) 
                     (  -0.00000  -0.00000   ) 
                     (  -0.00000  -0.00000   ) 
                     (  -0.00000  -0.00000   ) 
                     (  -0.00000  -0.00000   ) 
                     (  -0.00000  -0.00000   ) 

     Representation     5      1 modes -  To be done
     Irreps are as follows:

                     mode #   7
                     (  -0.00000  -0.00000   ) 
                     (  -0.00000  -0.00000   ) 
                     (  -0.00000  -0.00000   ) 
                     (   0.00000  -0.00000   ) 
                     (   0.00000  -0.00000   ) 
                     (  -0.70711  -0.00000   ) 
                     (  -0.00000  -0.00000   ) 
                     (   0.00000  -0.00000   ) 
                     (  -0.70711  -0.00000   ) 

     Representation     6      2 modes -  To be done
     Irreps are as follows:

           mode #   8                           mode #   9
           (  -0.00000  -0.00000   )            (  -0.00000   0.00000   ) 
           (  -0.00000  -0.00000   )            (  -0.00000   0.00000   ) 
           (  -0.00000  -0.00000   )            (  -0.00000   0.00000   ) 
           (  -0.70711  -0.00000   )            (  -0.00012  -0.00000   ) 
           (  -0.00012  -0.00000   )            (   0.70711   0.00000   ) 
           (   0.00000  -0.00000   )            (  -0.00000  -0.00000   ) 
           (   0.70711  -0.00000   )            (   0.00012   0.00000   ) 
           (   0.00012  -0.00000   )            (  -0.70711  -0.00000   ) 
           (  -0.00000  -0.00000   )            (   0.00000   0.00000   ) 



     Alpha used in Ewald sum =   2.8000
     PHONON       :      5.34s CPU     12.09s WALL



     Representation #   1 mode #   1

     Self-consistent Calculation

     Pert. #  1: Fermi energy shift (Ry) =     0.0000E+00     0.0000E+00

      iter #   1 total cpu time :    18.3 secs   av.it.:   7.9
      thresh= 1.000E-02 alpha_mix =  0.100 |ddv_scf|^2 =  3.764E-06

     Pert. #  1: Fermi energy shift (Ry) =     0.0000E+00     0.0000E+00

      iter #   2 total cpu time :    25.8 secs   av.it.:  12.4
      thresh= 1.940E-04 alpha_mix =  0.100 |ddv_scf|^2 =  6.557E-07

     Pert. #  1: Fermi energy shift (Ry) =     0.0000E+00     0.0000E+00

      iter #   3 total cpu time :    33.4 secs   av.it.:  12.9
      thresh= 8.098E-05 alpha_mix =  0.100 |ddv_scf|^2 =  1.935E-08

     Pert. #  1: Fermi energy shift (Ry) =     0.0000E+00     0.0000E+00

      iter #   4 total cpu time :    41.8 secs   av.it.:  15.0
      thresh= 1.391E-05 alpha_mix =  0.100 |ddv_scf|^2 =  2.080E-09

     Pert. #  1: Fermi energy shift (Ry) =     0.0000E+00     0.0000E+00

      iter #   5 total cpu time :    48.6 secs   av.it.:  10.6
      thresh= 4.561E-06 alpha_mix =  0.100 |ddv_scf|^2 =  1.958E-09

     Pert. #  1: Fermi energy shift (Ry) =     0.0000E+00     0.0000E+00

      iter #   6 total cpu time :    56.7 secs   av.it.:  14.2
      thresh= 4.425E-06 alpha_mix =  0.100 |ddv_scf|^2 =  2.376E-11

     Pert. #  1: Fermi energy shift (Ry) =     0.0000E+00     0.0000E+00

      iter #   7 total cpu time :    64.5 secs   av.it.:  13.3
      thresh= 4.874E-07 alpha_mix =  0.100 |ddv_scf|^2 =  1.441E-11

     Pert. #  1: Fermi energy shift (Ry) =     0.0000E+00     0.0000E+00

      iter #   8 total cpu time :    73.2 secs   av.it.:  15.5
      thresh= 3.796E-07 alpha_mix =  0.100 |ddv_scf|^2 =  4.671E-13

     End of self-consistent calculation

     Convergence has been achieved 


     Representation #   2 modes #   2   3

     Self-consistent Calculation

     Pert. #  1: Fermi energy shift (Ry) =     0.0000E+00     0.0000E+00
     Pert. #  2: Fermi energy shift (Ry) =     0.0000E+00     0.0000E+00

      iter #   1 total cpu time :    83.8 secs   av.it.:   6.9
      thresh= 1.000E-02 alpha_mix =  0.100 |ddv_scf|^2 =  1.352E-09

     Pert. #  1: Fermi energy shift (Ry) =     0.0000E+00     0.0000E+00
     Pert. #  2: Fermi energy shift (Ry) =     0.0000E+00     0.0000E+00

      iter #   2 total cpu time :    99.4 secs   av.it.:  14.7
      thresh= 3.676E-06 alpha_mix =  0.100 |ddv_scf|^2 =  9.171E-10

     Pert. #  1: Fermi energy shift (Ry) =     0.0000E+00     0.0000E+00
     Pert. #  2: Fermi energy shift (Ry) =     0.0000E+00     0.0000E+00

      iter #   3 total cpu time :   116.5 secs   av.it.:  16.6
      thresh= 3.028E-06 alpha_mix =  0.100 |ddv_scf|^2 =  1.861E-11

     Pert. #  1: Fermi energy shift (Ry) =     0.0000E+00     0.0000E+00
     Pert. #  2: Fermi energy shift (Ry) =     0.0000E+00     0.0000E+00

      iter #   4 total cpu time :   131.9 secs   av.it.:  14.5
      thresh= 4.314E-07 alpha_mix =  0.100 |ddv_scf|^2 =  1.402E-11

     Pert. #  1: Fermi energy shift (Ry) =     0.0000E+00     0.0000E+00
     Pert. #  2: Fermi energy shift (Ry) =     0.0000E+00     0.0000E+00

      iter #   5 total cpu time :   149.1 secs   av.it.:  17.0
      thresh= 3.745E-07 alpha_mix =  0.100 |ddv_scf|^2 =  2.745E-13

     End of self-consistent calculation

     Convergence has been achieved 


     Representation #   3 modes #   4   5

     Self-consistent Calculation

     Pert. #  1: Fermi energy shift (Ry) =     0.0000E+00     0.0000E+00
     Pert. #  2: Fermi energy shift (Ry) =     0.0000E+00     0.0000E+00

      iter #   1 total cpu time :   161.2 secs   av.it.:   8.7
      thresh= 1.000E-02 alpha_mix =  0.100 |ddv_scf|^2 =  2.863E-08

     Pert. #  1: Fermi energy shift (Ry) =     0.0000E+00     0.0000E+00
     Pert. #  2: Fermi energy shift (Ry) =     0.0000E+00     0.0000E+00

      iter #   2 total cpu time :   176.6 secs   av.it.:  14.4
      thresh= 1.692E-05 alpha_mix =  0.100 |ddv_scf|^2 =  1.898E-08

     Pert. #  1: Fermi energy shift (Ry) =     0.0000E+00     0.0000E+00
     Pert. #  2: Fermi energy shift (Ry) =     0.0000E+00     0.0000E+00

      iter #   3 total cpu time :   193.8 secs   av.it.:  16.4
      thresh= 1.378E-05 alpha_mix =  0.100 |ddv_scf|^2 =  9.064E-11

     Pert. #  1: Fermi energy shift (Ry) =     0.0000E+00     0.0000E+00
     Pert. #  2: Fermi energy shift (Ry) =     0.0000E+00     0.0000E+00

      iter #   4 total cpu time :   209.8 secs   av.it.:  15.1
      thresh= 9.520E-07 alpha_mix =  0.100 |ddv_scf|^2 =  6.331E-11

     Pert. #  1: Fermi energy shift (Ry) =     0.0000E+00     0.0000E+00
     Pert. #  2: Fermi energy shift (Ry) =     0.0000E+00     0.0000E+00

      iter #   5 total cpu time :   227.5 secs   av.it.:  17.2
      thresh= 7.956E-07 alpha_mix =  0.100 |ddv_scf|^2 =  3.227E-12

     Pert. #  1: Fermi energy shift (Ry) =     0.0000E+00     0.0000E+00
     Pert. #  2: Fermi energy shift (Ry) =     0.0000E+00     0.0000E+00

      iter #   6 total cpu time :   245.0 secs   av.it.:  17.2
      thresh= 1.796E-07 alpha_mix =  0.100 |ddv_scf|^2 =  9.939E-14

     End of self-consistent calculation

     Convergence has been achieved 


     Representation #   4 mode #   6

     Self-consistent Calculation

     Pert. #  1: Fermi energy shift (Ry) =     0.0000E+00     0.0000E+00

      iter #   1 total cpu time :   252.3 secs   av.it.:   9.6
      thresh= 1.000E-02 alpha_mix =  0.100 |ddv_scf|^2 =  1.261E-04

     Pert. #  1: Fermi energy shift (Ry) =     0.0000E+00     0.0000E+00

      iter #   2 total cpu time :   259.5 secs   av.it.:  11.7
      thresh= 1.123E-03 alpha_mix =  0.100 |ddv_scf|^2 =  6.855E-07

     Pert. #  1: Fermi energy shift (Ry) =     0.0000E+00     0.0000E+00

      iter #   3 total cpu time :   267.1 secs   av.it.:  12.8
      thresh= 8.280E-05 alpha_mix =  0.100 |ddv_scf|^2 =  1.402E-07

     Pert. #  1: Fermi energy shift (Ry) =     0.0000E+00     0.0000E+00

      iter #   4 total cpu time :   275.4 secs   av.it.:  14.5
      thresh= 3.744E-05 alpha_mix =  0.100 |ddv_scf|^2 =  2.459E-09

     Pert. #  1: Fermi energy shift (Ry) =     0.0000E+00     0.0000E+00

      iter #   5 total cpu time :   283.2 secs   av.it.:  13.5
      thresh= 4.959E-06 alpha_mix =  0.100 |ddv_scf|^2 =  1.630E-09

     Pert. #  1: Fermi energy shift (Ry) =     0.0000E+00     0.0000E+00

      iter #   6 total cpu time :   291.7 secs   av.it.:  15.2
      thresh= 4.037E-06 alpha_mix =  0.100 |ddv_scf|^2 =  5.034E-11

     Pert. #  1: Fermi energy shift (Ry) =     0.0000E+00     0.0000E+00

      iter #   7 total cpu time :   300.2 secs   av.it.:  15.4
      thresh= 7.095E-07 alpha_mix =  0.100 |ddv_scf|^2 =  4.151E-12

     Pert. #  1: Fermi energy shift (Ry) =     0.0000E+00     0.0000E+00

      iter #   8 total cpu time :   308.9 secs   av.it.:  15.6
      thresh= 2.037E-07 alpha_mix =  0.100 |ddv_scf|^2 =  7.226E-13

     End of self-consistent calculation

     Convergence has been achieved 


     Representation #   5 mode #   7

     Self-consistent Calculation

     Pert. #  1: Fermi energy shift (Ry) =     0.0000E+00     0.0000E+00

      iter #   1 total cpu time :   315.2 secs   av.it.:   7.8
      thresh= 1.000E-02 alpha_mix =  0.100 |ddv_scf|^2 =  1.381E-05

     Pert. #  1: Fermi energy shift (Ry) =     0.0000E+00     0.0000E+00

      iter #   2 total cpu time :   322.3 secs   av.it.:  11.5
      thresh= 3.717E-04 alpha_mix =  0.100 |ddv_scf|^2 =  3.810E-07

     Pert. #  1: Fermi energy shift (Ry) =     0.0000E+00     0.0000E+00

      iter #   3 total cpu time :   329.4 secs   av.it.:  11.6
      thresh= 6.172E-05 alpha_mix =  0.100 |ddv_scf|^2 =  6.339E-08

     Pert. #  1: Fermi energy shift (Ry) =     0.0000E+00     0.0000E+00

      iter #   4 total cpu time :   337.3 secs   av.it.:  13.7
      thresh= 2.518E-05 alpha_mix =  0.100 |ddv_scf|^2 =  8.539E-10

     Pert. #  1: Fermi energy shift (Ry) =     0.0000E+00     0.0000E+00

      iter #   5 total cpu time :   343.9 secs   av.it.:  10.1
      thresh= 2.922E-06 alpha_mix =  0.100 |ddv_scf|^2 =  7.953E-10

     Pert. #  1: Fermi energy shift (Ry) =     0.0000E+00     0.0000E+00

      iter #   6 total cpu time :   352.1 secs   av.it.:  14.5
      thresh= 2.820E-06 alpha_mix =  0.100 |ddv_scf|^2 =  3.599E-11

     Pert. #  1: Fermi energy shift (Ry) =     0.0000E+00     0.0000E+00

      iter #   7 total cpu time :   360.6 secs   av.it.:  15.1
      thresh= 5.999E-07 alpha_mix =  0.100 |ddv_scf|^2 =  7.300E-12

     Pert. #  1: Fermi energy shift (Ry) =     0.0000E+00     0.0000E+00

      iter #   8 total cpu time :   368.7 secs   av.it.:  14.1
      thresh= 2.702E-07 alpha_mix =  0.100 |ddv_scf|^2 =  2.783E-13

     End of self-consistent calculation

     Convergence has been achieved 


     Representation #   6 modes #   8   9

     Self-consistent Calculation

     Pert. #  1: Fermi energy shift (Ry) =     0.0000E+00     0.0000E+00
     Pert. #  2: Fermi energy shift (Ry) =     0.0000E+00     0.0000E+00

      iter #   1 total cpu time :   379.3 secs   av.it.:   6.8
      thresh= 1.000E-02 alpha_mix =  0.100 |ddv_scf|^2 =  1.052E-09

     Pert. #  1: Fermi energy shift (Ry) =     0.0000E+00     0.0000E+00
     Pert. #  2: Fermi energy shift (Ry) =     0.0000E+00     0.0000E+00

      iter #   2 total cpu time :   394.6 secs   av.it.:  14.2
      thresh= 3.244E-06 alpha_mix =  0.100 |ddv_scf|^2 =  7.302E-10

     Pert. #  1: Fermi energy shift (Ry) =     0.0000E+00     0.0000E+00
     Pert. #  2: Fermi energy shift (Ry) =     0.0000E+00     0.0000E+00

      iter #   3 total cpu time :   411.5 secs   av.it.:  16.3
      thresh= 2.702E-06 alpha_mix =  0.100 |ddv_scf|^2 =  1.578E-11

     Pert. #  1: Fermi energy shift (Ry) =     0.0000E+00     0.0000E+00
     Pert. #  2: Fermi energy shift (Ry) =     0.0000E+00     0.0000E+00

      iter #   4 total cpu time :   426.7 secs   av.it.:  14.1
      thresh= 3.972E-07 alpha_mix =  0.100 |ddv_scf|^2 =  1.086E-11

     Pert. #  1: Fermi energy shift (Ry) =     0.0000E+00     0.0000E+00
     Pert. #  2: Fermi energy shift (Ry) =     0.0000E+00     0.0000E+00

      iter #   5 total cpu time :   443.6 secs   av.it.:  16.3
      thresh= 3.296E-07 alpha_mix =  0.100 |ddv_scf|^2 =  4.296E-14

     End of self-consistent calculation

     Convergence has been achieved 

     Number of q in the star =    1
     List of q in the star:
          1   0.000000000   0.000000000   0.000000000

     Diagonalizing the dynamical matrix

     q = (   -0.000000000  -0.000000000  -0.000000000 ) 

 **************************************************************************
     freq (    1) =      -2.621361 [THz] =     -87.439197 [cm-1]
     freq (    2) =       2.378405 [THz] =      79.335058 [cm-1]
     freq (    3) =       2.378405 [THz] =      79.335058 [cm-1]
     freq (    4) =       8.470925 [THz] =     282.559657 [cm-1]
     freq (    5) =       8.470925 [THz] =     282.559657 [cm-1]
     freq (    6) =      10.762051 [THz] =     358.983371 [cm-1]
     freq (    7) =      10.762051 [THz] =     358.983371 [cm-1]
     freq (    8) =      12.028282 [THz] =     401.220314 [cm-1]
     freq (    9) =      14.089879 [THz] =     469.987773 [cm-1]
 **************************************************************************

     Mode symmetry, D_3h (-62m) point group:

     freq (   1-   1) =        -87.4  [cm-1]   --> A''2            I  
     freq (   2-   3) =         79.3  [cm-1]   --> E'              I+R
     freq (   4-   5) =        282.6  [cm-1]   --> E''             R  
     freq (   6-   7) =        359.0  [cm-1]   --> E'              I+R
     freq (   8-   8) =        401.2  [cm-1]   --> A'_1            R  
     freq (   9-   9) =        470.0  [cm-1]   --> A''2            I  

     Calculation of q =   -0.0000000  -0.1924501  -0.0000000

     Parallelization info
     --------------------
     sticks:   dense  smooth     PW     G-vecs:    dense   smooth      PW
     Min          30      15      4                 7300     2568     396
     Max          31      17      5                 7337     2593     429
     Sum        1945     967    283               468457   165261   26267

     Using Slab Decomposition


     Title: 
     default                                                                    


     bravais-lattice index     =            4
     lattice parameter (alat)  =       5.9477  a.u.
     unit-cell volume          =    1225.4506 (a.u.)^3
     number of atoms/cell      =            3
     number of atomic types    =            2
     number of electrons       =        26.00
     number of Kohn-Sham states=           17
     kinetic-energy cutoff     =     100.0000  Ry
     charge density cutoff     =     800.0000  Ry
     Exchange-correlation= PBESOL
                           (   1   4  10   8   0   0   0)

     celldm(1)=   5.947749  celldm(2)=   0.000000  celldm(3)=   6.725234
     celldm(4)=   0.000000  celldm(5)=   0.000000  celldm(6)=   0.000000

     crystal axes: (cart. coord. in units of alat)
               a(1) = (   1.000000   0.000000   0.000000 )  
               a(2) = (  -0.500000   0.866025   0.000000 )  
               a(3) = (   0.000000   0.000000   6.725234 )  

     reciprocal axes: (cart. coord. in units 2 pi/alat)
               b(1) = (  1.000000  0.577350 -0.000000 )  
               b(2) = (  0.000000  1.154701  0.000000 )  
               b(3) = (  0.000000 -0.000000  0.148694 )  


     PseudoPot. # 1 for Mo read from file:
     ../pseudo/Mo.pbesol.dojo.upf
     MD5 check sum: c40353276b9086539cda6b9e5a66907b
     Pseudo is Norm-conserving + core correction, Zval = 14.0
     Generated using ONCVPSP code by D. R. Hamann
     Using radial grid of 1640 points,  6 beta functions with: 
                l(1) =   0
                l(2) =   0
                l(3) =   1
                l(4) =   1
                l(5) =   2
                l(6) =   2

     PseudoPot. # 2 for S  read from file:
     ../pseudo/S.pbesol.dojo.upf
     MD5 check sum: 501737efeeef1fb1c631cda521d4e019
     Pseudo is Norm-conserving + core correction, Zval =  6.0
     Generated using ONCVPSP code by D. R. Hamann
     Using radial grid of 1146 points,  6 beta functions with: 
                l(1) =   0
                l(2) =   0
                l(3) =   1
                l(4) =   1
                l(5) =   2
                l(6) =   2

     atomic species   valence    mass     pseudopotential
     Mo               14.00    95.95000     Mo( 1.00)
     S                 6.00    32.06500     S ( 1.00)

     12 Sym. Ops. (no inversion) found


                                    s                        frac. trans.

      isym =  1     identity                                     

 cryst.   s( 1) = (     1          0          0      )
                  (     0          1          0      )
                  (     0          0          1      )

 cart.    s( 1) = (  1.0000000  0.0000000  0.0000000 )
                  (  0.0000000  1.0000000  0.0000000 )
                  (  0.0000000  0.0000000  1.0000000 )


      isym =  2     inv. 180 deg rotation - cart. axis [0,0,1]   

 cryst.   s( 2) = (     1          0          0      )
                  (     0          1          0      )
                  (     0          0         -1      )

 cart.    s( 2) = (  1.0000000  0.0000000  0.0000000 )
                  (  0.0000000  1.0000000  0.0000000 )
                  (  0.0000000  0.0000000 -1.0000000 )


      isym =  3     180 deg rotation - cart. axis [0,1,0]        

 cryst.   s( 3) = (    -1          0          0      )
                  (     1          1          0      )
                  (     0          0         -1      )

 cart.    s( 3) = ( -1.0000000  0.0000000  0.0000000 )
                  (  0.0000000  1.0000000  0.0000000 )
                  (  0.0000000  0.0000000 -1.0000000 )


      isym =  4     inv. 180 deg rotation - cart. axis [1,0,0]   

 cryst.   s( 4) = (    -1          0          0      )
                  (     1          1          0      )
                  (     0          0          1      )

 cart.    s( 4) = ( -1.0000000  0.0000000  0.0000000 )
                  (  0.0000000  1.0000000  0.0000000 )
                  (  0.0000000  0.0000000  1.0000000 )


      isym =  5     inv.  60 deg rotation - cryst. axis [0,0,1]  

 cryst.   s( 5) = (    -1         -1          0      )
                  (     1          0          0      )
                  (     0          0         -1      )

 cart.    s( 5) = ( -0.5000000  0.8660254  0.0000000 )
                  ( -0.8660254 -0.5000000  0.0000000 )
                  (  0.0000000  0.0000000 -1.0000000 )


      isym =  6     inv.  60 deg rotation - cryst. axis [0,0,-1] 

 cryst.   s( 6) = (     0          1          0      )
                  (    -1         -1          0      )
                  (     0          0         -1      )

 cart.    s( 6) = ( -0.5000000 -0.8660254  0.0000000 )
                  (  0.8660254 -0.5000000  0.0000000 )
                  (  0.0000000  0.0000000 -1.0000000 )


      isym =  7     120 deg rotation - cryst. axis [0,0,1]       

 cryst.   s( 7) = (     0          1          0      )
                  (    -1         -1          0      )
                  (     0          0          1      )

 cart.    s( 7) = ( -0.5000000 -0.8660254  0.0000000 )
                  (  0.8660254 -0.5000000  0.0000000 )
                  (  0.0000000  0.0000000  1.0000000 )


      isym =  8     120 deg rotation - cryst. axis [0,0,-1]      

 cryst.   s( 8) = (    -1         -1          0      )
                  (     1          0          0      )
                  (     0          0          1      )

 cart.    s( 8) = ( -0.5000000  0.8660254  0.0000000 )
                  ( -0.8660254 -0.5000000  0.0000000 )
                  (  0.0000000  0.0000000  1.0000000 )


      isym =  9     180 deg rotation - cryst. axis [1,-1,0]      

 cryst.   s( 9) = (     0         -1          0      )
                  (    -1          0          0      )
                  (     0          0         -1      )

 cart.    s( 9) = (  0.5000000 -0.8660254  0.0000000 )
                  ( -0.8660254 -0.5000000  0.0000000 )
                  (  0.0000000  0.0000000 -1.0000000 )


      isym = 10     180 deg rotation - cryst. axis [2,1,0]       

 cryst.   s(10) = (     1          1          0      )
                  (     0         -1          0      )
                  (     0          0         -1      )

 cart.    s(10) = (  0.5000000  0.8660254  0.0000000 )
                  (  0.8660254 -0.5000000  0.0000000 )
                  (  0.0000000  0.0000000 -1.0000000 )


      isym = 11     inv. 180 deg rotation - cryst. axis [0,1,0]  

 cryst.   s(11) = (     1          1          0      )
                  (     0         -1          0      )
                  (     0          0          1      )

 cart.    s(11) = (  0.5000000  0.8660254  0.0000000 )
                  (  0.8660254 -0.5000000  0.0000000 )
                  (  0.0000000  0.0000000  1.0000000 )


      isym = 12     inv. 180 deg rotation - cryst. axis [1,1,0]  

 cryst.   s(12) = (     0         -1          0      )
                  (    -1          0          0      )
                  (     0          0          1      )

 cart.    s(12) = (  0.5000000 -0.8660254  0.0000000 )
                  ( -0.8660254 -0.5000000  0.0000000 )
                  (  0.0000000  0.0000000  1.0000000 )


     point group D_3h (-62m)
     there are  6 classes
     the character table:

       E     2C3   3C2   s_h   2S3   3s_v 
A'_1   1.00  1.00  1.00  1.00  1.00  1.00
A'_2   1.00  1.00 -1.00  1.00  1.00 -1.00
E'     2.00 -1.00  0.00  2.00 -1.00  0.00
A''1   1.00  1.00  1.00 -1.00 -1.00 -1.00
A''2   1.00  1.00 -1.00 -1.00 -1.00  1.00
E''    2.00 -1.00  0.00 -2.00  1.00  0.00

     the symmetry operations in each class and the name of the first element:

     E        1
          identity                                               
     2C3      7    8
          120 deg rotation - cryst. axis [0,0,1]                 
     3C2      3    9   10
          180 deg rotation - cart. axis [0,1,0]                  
     s_h      2
          inv. 180 deg rotation - cart. axis [0,0,1]             
     2S3      5    6
          inv.  60 deg rotation - cryst. axis [0,0,1]            
     3s_v     4   12   11
          inv. 180 deg rotation - cart. axis [1,0,0]             

   Cartesian axes

     site n.     atom                  positions (alat units)
         1        Mo     tau(   1) = (  -0.0000000   0.5773503   0.0000000  )
         2        S      tau(   2) = (   0.5000000   0.2886751   0.4945008  )
         3        S      tau(   3) = (   0.5000000   0.2886751  -0.4945008  )

   Crystallographic axes

     site n.     atom                  positions (cryst. coord.)
         1        Mo     tau(   1) = (  0.3333333  0.6666667  0.0000000  )
         2        S      tau(   2) = (  0.6666667  0.3333333  0.0735292  )
         3        S      tau(   3) = (  0.6666667  0.3333333 -0.0735292  )

     number of k points=   342  Marzari-Vanderbilt smearing, width (Ry)=  0.0010
                       cart. coord. in units 2pi/alat
        k(    1) = (   0.0000000   0.0000000   0.0000000), wk =   0.0061728
        k(    2) = (  -0.0000000  -0.1924501   0.0000000), wk =   0.0000000
        k(    3) = (   0.0000000   0.0641500   0.0000000), wk =   0.0061728
        k(    4) = (  -0.0000000  -0.1283001   0.0000000), wk =   0.0000000
        k(    5) = (   0.0000000   0.1283001   0.0000000), wk =   0.0061728
        k(    6) = (  -0.0000000  -0.0641500   0.0000000), wk =   0.0000000
        k(    7) = (   0.0000000   0.1924501   0.0000000), wk =   0.0061728
        k(    8) = (  -0.0000000  -0.0000000   0.0000000), wk =   0.0000000
        k(    9) = (   0.0000000   0.2566001   0.0000000), wk =   0.0061728
        k(   10) = (  -0.0000000   0.0641500   0.0000000), wk =   0.0000000
        k(   11) = (   0.0000000   0.3207501   0.0000000), wk =   0.0061728
        k(   12) = (  -0.0000000   0.1283000   0.0000000), wk =   0.0000000
        k(   13) = (   0.0000000   0.3849002   0.0000000), wk =   0.0061728
        k(   14) = (  -0.0000000   0.1924501   0.0000000), wk =   0.0000000
        k(   15) = (   0.0000000   0.4490502   0.0000000), wk =   0.0061728
        k(   16) = (  -0.0000000   0.2566001   0.0000000), wk =   0.0000000
        k(   17) = (   0.0000000   0.5132002   0.0000000), wk =   0.0061728
        k(   18) = (  -0.0000000   0.3207501   0.0000000), wk =   0.0000000
        k(   19) = (   0.0000000  -0.5773503   0.0000000), wk =   0.0061728
        k(   20) = (  -0.0000000  -0.7698004   0.0000000), wk =   0.0000000
        k(   21) = (   0.0555556   0.0962250   0.0000000), wk =   0.0123457
        k(   22) = (   0.0555556  -0.0962251   0.0000000), wk =   0.0000000
        k(   23) = (   0.0555556   0.1603751   0.0000000), wk =   0.0123457
        k(   24) = (   0.0555556  -0.0320750   0.0000000), wk =   0.0000000
        k(   25) = (   0.0555556   0.2245251   0.0000000), wk =   0.0123457
        k(   26) = (   0.0555556   0.0320750   0.0000000), wk =   0.0000000
        k(   27) = (   0.0555556   0.2886751   0.0000000), wk =   0.0123457
        k(   28) = (   0.0555556   0.0962250   0.0000000), wk =   0.0000000
        k(   29) = (   0.0555556   0.3528252   0.0000000), wk =   0.0123457
        k(   30) = (   0.0555556   0.1603751   0.0000000), wk =   0.0000000
        k(   31) = (   0.0555556   0.4169752   0.0000000), wk =   0.0123457
        k(   32) = (   0.0555556   0.2245251   0.0000000), wk =   0.0000000
        k(   33) = (   0.0555556   0.4811252   0.0000000), wk =   0.0123457
        k(   34) = (   0.0555556   0.2886751   0.0000000), wk =   0.0000000
        k(   35) = (   0.0555556   0.5452753   0.0000000), wk =   0.0123457
        k(   36) = (   0.0555556   0.3528251   0.0000000), wk =   0.0000000
        k(   37) = (   0.1111111   0.1924501   0.0000000), wk =   0.0123457
        k(   38) = (   0.1111111  -0.0000000   0.0000000), wk =   0.0000000
        k(   39) = (   0.1111111   0.2566001   0.0000000), wk =   0.0123457
        k(   40) = (   0.1111111   0.0641500   0.0000000), wk =   0.0000000
        k(   41) = (   0.1111111   0.3207501   0.0000000), wk =   0.0123457
        k(   42) = (   0.1111111   0.1283000   0.0000000), wk =   0.0000000
        k(   43) = (   0.1111111   0.3849002   0.0000000), wk =   0.0123457
        k(   44) = (   0.1111111   0.1924501   0.0000000), wk =   0.0000000
        k(   45) = (   0.1111111   0.4490502   0.0000000), wk =   0.0123457
        k(   46) = (   0.1111111   0.2566001   0.0000000), wk =   0.0000000
        k(   47) = (   0.1111111   0.5132002   0.0000000), wk =   0.0123457
        k(   48) = (   0.1111111   0.3207501   0.0000000), wk =   0.0000000
        k(   49) = (   0.1111111   0.5773503   0.0000000), wk =   0.0123457
[...]
        k(  182) = (  -0.4444444  -0.1111111   0.0000000), wk =   0.0000000
        k(  183) = (  -0.0555556  -0.3888889   0.0000000), wk =   0.0123457
        k(  184) = (  -0.0555556  -0.5555556   0.0000000), wk =   0.0000000
        k(  185) = (  -0.3888889   0.4444444   0.0000000), wk =   0.0123457
        k(  186) = (  -0.3888889   0.2777778   0.0000000), wk =   0.0000000
        k(  187) = (   0.4444444  -0.0555556   0.0000000), wk =   0.0123457
        k(  188) = (   0.4444444  -0.2222222   0.0000000), wk =   0.0000000
        k(  189) = (   0.4444444  -0.5000000   0.0000000), wk =   0.0123457
        k(  190) = (   0.4444444  -0.6666667   0.0000000), wk =   0.0000000
        k(  191) = (  -0.5000000   0.0555556   0.0000000), wk =   0.0123457
        k(  192) = (  -0.5000000  -0.1111111   0.0000000), wk =   0.0000000
        k(  193) = (  -0.0555556  -0.4444444   0.0000000), wk =   0.0123457
        k(  194) = (  -0.0555556  -0.6111111   0.0000000), wk =   0.0000000
        k(  195) = (  -0.4444444   0.5000000   0.0000000), wk =   0.0123457
        k(  196) = (  -0.4444444   0.3333333   0.0000000), wk =   0.0000000
        k(  197) = (   0.5000000  -0.0555556   0.0000000), wk =   0.0123457
        k(  198) = (   0.5000000  -0.2222222   0.0000000), wk =   0.0000000
        k(  199) = (   0.1111111  -0.2222222   0.0000000), wk =   0.0123457
        k(  200) = (   0.1111111  -0.3888889   0.0000000), wk =   0.0000000
        k(  201) = (  -0.2222222   0.1111111   0.0000000), wk =   0.0123457
        k(  202) = (  -0.2222222  -0.0555556   0.0000000), wk =   0.0000000
        k(  203) = (   0.1666667  -0.2777778   0.0000000), wk =   0.0123457
        k(  204) = (   0.1666667  -0.4444445   0.0000000), wk =   0.0000000
        k(  205) = (  -0.2777778   0.1111111   0.0000000), wk =   0.0123457
        k(  206) = (  -0.2777778  -0.0555556   0.0000000), wk =   0.0000000
        k(  207) = (  -0.1111111  -0.1666667   0.0000000), wk =   0.0123457
        k(  208) = (  -0.1111111  -0.3333333   0.0000000), wk =   0.0000000
        k(  209) = (  -0.1666667   0.2777778   0.0000000), wk =   0.0123457
        k(  210) = (  -0.1666667   0.1111111   0.0000000), wk =   0.0000000
        k(  211) = (   0.2777778  -0.1111111   0.0000000), wk =   0.0123457
        k(  212) = (   0.2777778  -0.2777778   0.0000000), wk =   0.0000000
        k(  213) = (   0.2222222  -0.3333333   0.0000000), wk =   0.0123457
        k(  214) = (   0.2222222  -0.5000000   0.0000000), wk =   0.0000000
        k(  215) = (  -0.3333333   0.1111111   0.0000000), wk =   0.0123457
        k(  216) = (  -0.3333333  -0.0555556   0.0000000), wk =   0.0000000
        k(  217) = (  -0.1111111  -0.2222222   0.0000000), wk =   0.0123457
        k(  218) = (  -0.1111111  -0.3888889   0.0000000), wk =   0.0000000
        k(  219) = (  -0.2222222   0.3333333   0.0000000), wk =   0.0123457
        k(  220) = (  -0.2222222   0.1666667   0.0000000), wk =   0.0000000
        k(  221) = (   0.3333333  -0.1111111   0.0000000), wk =   0.0123457
        k(  222) = (   0.3333333  -0.2777778   0.0000000), wk =   0.0000000
        k(  223) = (   0.2777778  -0.3888889   0.0000000), wk =   0.0123457
        k(  224) = (   0.2777778  -0.5555556   0.0000000), wk =   0.0000000
        k(  225) = (  -0.3888889   0.1111111   0.0000000), wk =   0.0123457
        k(  226) = (  -0.3888889  -0.0555556   0.0000000), wk =   0.0000000
        k(  227) = (  -0.1111111  -0.2777778   0.0000000), wk =   0.0123457
        k(  228) = (  -0.1111111  -0.4444445   0.0000000), wk =   0.0000000
        k(  229) = (  -0.2777778   0.3888889   0.0000000), wk =   0.0123457
        k(  230) = (  -0.2777778   0.2222222   0.0000000), wk =   0.0000000
        k(  231) = (   0.3888889  -0.1111111   0.0000000), wk =   0.0123457
        k(  232) = (   0.3888889  -0.2777778   0.0000000), wk =   0.0000000
        k(  233) = (   0.3333333  -0.4444444   0.0000000), wk =   0.0123457
        k(  234) = (   0.3333333  -0.6111111   0.0000000), wk =   0.0000000
        k(  235) = (  -0.4444444   0.1111111   0.0000000), wk =   0.0123457
        k(  236) = (  -0.4444444  -0.0555556   0.0000000), wk =   0.0000000
        k(  237) = (  -0.1111111  -0.3333333   0.0000000), wk =   0.0123457
        k(  238) = (  -0.1111111  -0.5000000   0.0000000), wk =   0.0000000
        k(  239) = (  -0.3333333   0.4444444   0.0000000), wk =   0.0123457
        k(  240) = (  -0.3333333   0.2777778   0.0000000), wk =   0.0000000
        k(  241) = (   0.4444444  -0.1111111   0.0000000), wk =   0.0123457
        k(  242) = (   0.4444444  -0.2777778   0.0000000), wk =   0.0000000
        k(  243) = (   0.3888889  -0.5000000   0.0000000), wk =   0.0123457
        k(  244) = (   0.3888889  -0.6666667   0.0000000), wk =   0.0000000
        k(  245) = (  -0.5000000   0.1111111   0.0000000), wk =   0.0123457
        k(  246) = (  -0.5000000  -0.0555556   0.0000000), wk =   0.0000000
        k(  247) = (  -0.1111111  -0.3888889   0.0000000), wk =   0.0123457
        k(  248) = (  -0.1111111  -0.5555556   0.0000000), wk =   0.0000000
        k(  249) = (  -0.3888889   0.5000000   0.0000000), wk =   0.0123457
        k(  250) = (  -0.3888889   0.3333333   0.0000000), wk =   0.0000000
        k(  251) = (   0.5000000  -0.1111111   0.0000000), wk =   0.0123457
        k(  252) = (   0.5000000  -0.2777778   0.0000000), wk =   0.0000000
        k(  253) = (   0.4444444  -0.5555556   0.0000000), wk =   0.0123457
        k(  254) = (   0.4444444  -0.7222222   0.0000000), wk =   0.0000000
        k(  255) = (  -0.5555556   0.1111111   0.0000000), wk =   0.0123457
        k(  256) = (  -0.5555556  -0.0555556   0.0000000), wk =   0.0000000
        k(  257) = (   0.1666667  -0.3333333   0.0000000), wk =   0.0123457
        k(  258) = (   0.1666667  -0.5000000   0.0000000), wk =   0.0000000
        k(  259) = (  -0.3333333   0.1666667   0.0000000), wk =   0.0123457
        k(  260) = (  -0.3333333  -0.0000000   0.0000000), wk =   0.0000000
        k(  261) = (   0.2222222  -0.3888889   0.0000000), wk =   0.0123457
        k(  262) = (   0.2222222  -0.5555556   0.0000000), wk =   0.0000000
        k(  263) = (  -0.3888889   0.1666667   0.0000000), wk =   0.0123457
        k(  264) = (  -0.3888889  -0.0000000   0.0000000), wk =   0.0000000
        k(  265) = (  -0.1666667  -0.2222222   0.0000000), wk =   0.0123457
        k(  266) = (  -0.1666667  -0.3888889   0.0000000), wk =   0.0000000
        k(  267) = (  -0.2222222   0.3888889   0.0000000), wk =   0.0123457
        k(  268) = (  -0.2222222   0.2222222   0.0000000), wk =   0.0000000
        k(  269) = (   0.3888889  -0.1666667   0.0000000), wk =   0.0123457
        k(  270) = (   0.3888889  -0.3333333   0.0000000), wk =   0.0000000
        k(  271) = (   0.2777778  -0.4444444   0.0000000), wk =   0.0123457
        k(  272) = (   0.2777778  -0.6111111   0.0000000), wk =   0.0000000
        k(  273) = (  -0.4444444   0.1666667   0.0000000), wk =   0.0123457
        k(  274) = (  -0.4444444  -0.0000000   0.0000000), wk =   0.0000000
        k(  275) = (  -0.1666667  -0.2777778   0.0000000), wk =   0.0123457
        k(  276) = (  -0.1666667  -0.4444445   0.0000000), wk =   0.0000000
        k(  277) = (  -0.2777778   0.4444444   0.0000000), wk =   0.0123457
        k(  278) = (  -0.2777778   0.2777778   0.0000000), wk =   0.0000000
        k(  279) = (   0.4444444  -0.1666667   0.0000000), wk =   0.0123457
        k(  280) = (   0.4444444  -0.3333333   0.0000000), wk =   0.0000000
        k(  281) = (   0.3333333  -0.5000000   0.0000000), wk =   0.0123457
        k(  282) = (   0.3333333  -0.6666667   0.0000000), wk =   0.0000000
        k(  283) = (  -0.5000000   0.1666667   0.0000000), wk =   0.0123457
        k(  284) = (  -0.5000000  -0.0000000   0.0000000), wk =   0.0000000
        k(  285) = (  -0.1666667  -0.3333333   0.0000000), wk =   0.0123457
        k(  286) = (  -0.1666667  -0.5000000   0.0000000), wk =   0.0000000
        k(  287) = (  -0.3333333   0.5000000   0.0000000), wk =   0.0123457
        k(  288) = (  -0.3333333   0.3333333   0.0000000), wk =   0.0000000
        k(  289) = (   0.5000000  -0.1666667   0.0000000), wk =   0.0123457
        k(  290) = (   0.5000000  -0.3333333   0.0000000), wk =   0.0000000
        k(  291) = (   0.3888889  -0.5555556   0.0000000), wk =   0.0123457
        k(  292) = (   0.3888889  -0.7222222   0.0000000), wk =   0.0000000
        k(  293) = (  -0.5555556   0.1666667   0.0000000), wk =   0.0123457
        k(  294) = (  -0.5555556  -0.0000000   0.0000000), wk =   0.0000000
        k(  295) = (  -0.1666667  -0.3888889   0.0000000), wk =   0.0123457
        k(  296) = (  -0.1666667  -0.5555556   0.0000000), wk =   0.0000000
        k(  297) = (  -0.3888889   0.5555556   0.0000000), wk =   0.0123457
        k(  298) = (  -0.3888889   0.3888889   0.0000000), wk =   0.0000000
        k(  299) = (   0.5555556  -0.1666667   0.0000000), wk =   0.0123457
        k(  300) = (   0.5555556  -0.3333333   0.0000000), wk =   0.0000000
        k(  301) = (   0.2222222  -0.4444444   0.0000000), wk =   0.0123457
        k(  302) = (   0.2222222  -0.6111111   0.0000000), wk =   0.0000000
        k(  303) = (  -0.4444444   0.2222222   0.0000000), wk =   0.0123457
        k(  304) = (  -0.4444444   0.0555555   0.0000000), wk =   0.0000000
        k(  305) = (   0.2777778  -0.5000000   0.0000000), wk =   0.0123457
        k(  306) = (   0.2777778  -0.6666667   0.0000000), wk =   0.0000000
        k(  307) = (  -0.5000000   0.2222222   0.0000000), wk =   0.0123457
        k(  308) = (  -0.5000000   0.0555555   0.0000000), wk =   0.0000000
        k(  309) = (  -0.2222222  -0.2777778   0.0000000), wk =   0.0123457
        k(  310) = (  -0.2222222  -0.4444445   0.0000000), wk =   0.0000000
        k(  311) = (  -0.2777778   0.5000000   0.0000000), wk =   0.0123457
        k(  312) = (  -0.2777778   0.3333333   0.0000000), wk =   0.0000000
        k(  313) = (   0.5000000  -0.2222222   0.0000000), wk =   0.0123457
        k(  314) = (   0.5000000  -0.3888889   0.0000000), wk =   0.0000000
        k(  315) = (   0.3333333  -0.5555556   0.0000000), wk =   0.0123457
        k(  316) = (   0.3333333  -0.7222222   0.0000000), wk =   0.0000000
        k(  317) = (  -0.5555556   0.2222222   0.0000000), wk =   0.0123457
        k(  318) = (  -0.5555556   0.0555555   0.0000000), wk =   0.0000000
        k(  319) = (  -0.2222222  -0.3333333   0.0000000), wk =   0.0123457
        k(  320) = (  -0.2222222  -0.5000000   0.0000000), wk =   0.0000000
        k(  321) = (  -0.3333333   0.5555556   0.0000000), wk =   0.0123457
        k(  322) = (  -0.3333333   0.3888889   0.0000000), wk =   0.0000000
        k(  323) = (   0.5555556  -0.2222222   0.0000000), wk =   0.0123457
        k(  324) = (   0.5555556  -0.3888889   0.0000000), wk =   0.0000000
        k(  325) = (   0.3888889  -0.6111111   0.0000000), wk =   0.0123457
        k(  326) = (   0.3888889  -0.7777778   0.0000000), wk =   0.0000000
        k(  327) = (  -0.6111111   0.2222222   0.0000000), wk =   0.0123457
        k(  328) = (  -0.6111111   0.0555555   0.0000000), wk =   0.0000000
        k(  329) = (   0.2777778  -0.5555556   0.0000000), wk =   0.0123457
        k(  330) = (   0.2777778  -0.7222222   0.0000000), wk =   0.0000000
        k(  331) = (  -0.5555556   0.2777778   0.0000000), wk =   0.0123457
        k(  332) = (  -0.5555556   0.1111111   0.0000000), wk =   0.0000000
        k(  333) = (   0.3333333  -0.6111111   0.0000000), wk =   0.0123457
        k(  334) = (   0.3333333  -0.7777778   0.0000000), wk =   0.0000000
        k(  335) = (  -0.6111111   0.2777778   0.0000000), wk =   0.0123457
        k(  336) = (  -0.6111111   0.1111111   0.0000000), wk =   0.0000000
        k(  337) = (  -0.2777778  -0.3333333   0.0000000), wk =   0.0123457
        k(  338) = (  -0.2777778  -0.5000000   0.0000000), wk =   0.0000000
        k(  339) = (  -0.3333333   0.6111111   0.0000000), wk =   0.0123457
        k(  340) = (  -0.3333333   0.4444444   0.0000000), wk =   0.0000000
        k(  341) = (   0.6111111  -0.2777778   0.0000000), wk =   0.0123457
        k(  342) = (   0.6111111  -0.4444445   0.0000000), wk =   0.0000000

     PseudoPot. # 1 for Mo read from file:
     ../pseudo/Mo.pbesol.dojo.upf
     MD5 check sum: c40353276b9086539cda6b9e5a66907b
     Pseudo is Norm-conserving + core correction, Zval = 14.0
     Generated using ONCVPSP code by D. R. Hamann
     Using radial grid of 1640 points,  6 beta functions with: 
                l(1) =   0
                l(2) =   0
                l(3) =   1
                l(4) =   1
                l(5) =   2
                l(6) =   2

     PseudoPot. # 2 for S  read from file:
     ../pseudo/S.pbesol.dojo.upf
     MD5 check sum: 501737efeeef1fb1c631cda521d4e019
     Pseudo is Norm-conserving + core correction, Zval =  6.0
     Generated using ONCVPSP code by D. R. Hamann
     Using radial grid of 1146 points,  6 beta functions with: 
                l(1) =   0
                l(2) =   0
                l(3) =   1
                l(4) =   1
                l(5) =   2
                l(6) =   2

     point group C_2v (mm2) 
     there are  4 classes
     the character table:

       E     C2    s_v   s_v' 
A_1    1.00  1.00  1.00  1.00
A_2    1.00  1.00 -1.00 -1.00
B_1    1.00 -1.00  1.00 -1.00
B_2    1.00 -1.00 -1.00  1.00

     the symmetry operations in each class and the name of the first element:

     E        1
          identity                                               
     C2       3
          180 deg rotation - cart. axis [0,1,0]                  
     s_v      2
          inv. 180 deg rotation - cart. axis [0,0,1]             
     s_v'     4
          inv. 180 deg rotation - cart. axis [1,0,0]             


     Atomic displacements:
     There are    9 irreducible representations

     Representation     1      1 modes -  To be done
     Irreps are as follows:

                     mode #   1
                     (  -0.00000  -0.00000   ) 
                     (  -0.00000  -0.00000   ) 
                     (  -0.00000  -0.00000   ) 
                     (  -0.00000   0.00000   ) 
                     (  -0.50179   0.00000   ) 
                     (  -0.42209   0.26467   ) 
                     (  -0.00000   0.00000   ) 
                     (  -0.50179  -0.00000   ) 
                     (   0.42209  -0.26467   ) 

     Representation     2      1 modes -  To be done
     Irreps are as follows:

                     mode #   2
                     (  -0.00000  -0.00000   ) 
                     (  -0.00000  -0.00000   ) 
                     (  -0.00000  -0.00000   ) 
                     (  -0.00000   0.00000   ) 
                     (  -0.49820   0.00000   ) 
                     (   0.42513  -0.26657   ) 
                     (  -0.00000   0.00000   ) 
                     (  -0.49820   0.00000   ) 
                     (  -0.42513   0.26657   ) 

     Representation     3      1 modes -  To be done
     Irreps are as follows:

                     mode #   3
                     (   0.00000  -0.00000   ) 
                     (  -1.00000   0.00000   ) 
                     (   0.00000  -0.00000   ) 
                     (   0.00000  -0.00000   ) 
                     (   0.00000  -0.00000   ) 
                     (   0.00000  -0.00000   ) 
                     (   0.00000  -0.00000   ) 
                     (   0.00000  -0.00000   ) 
                     (   0.00000  -0.00000   ) 

     Representation     4      1 modes -  To be done
     Irreps are as follows:

                     mode #   4
                     (  -0.00000  -0.00000   ) 
                     (  -0.00000  -0.00000   ) 
                     (  -0.00000  -0.00000   ) 
                     (  -0.70711  -0.00000   ) 
                     (  -0.00000  -0.00000   ) 
                     (  -0.00000   0.00000   ) 
                     (   0.70711   0.00000   ) 
                     (  -0.00000  -0.00000   ) 
                     (   0.00000  -0.00000   ) 

     Representation     5      1 modes -  To be done
     Irreps are as follows:

                     mode #   5
                     (  -0.00000  -0.00000   ) 
                     (  -0.00000  -0.00000   ) 
                     (  -0.00000  -0.00000   ) 
                     (  -0.70711   0.00000   ) 
                     (   0.00000   0.00000   ) 
                     (  -0.00000   0.00000   ) 
                     (  -0.70711  -0.00000   ) 
                     (   0.00000   0.00000   ) 
                     (   0.00000   0.00000   ) 

     Representation     6      1 modes -  To be done
     Irreps are as follows:

                     mode #   6
                     (  -1.00000  -0.00000   ) 
                     (  -0.00000  -0.00000   ) 
                     (  -0.00000  -0.00000   ) 
                     (  -0.00000  -0.00000   ) 
                     (  -0.00000  -0.00000   ) 
                     (  -0.00000  -0.00000   ) 
                     (  -0.00000  -0.00000   ) 
                     (  -0.00000  -0.00000   ) 
                     (  -0.00000  -0.00000   ) 

     Representation     7      1 modes -  To be done
     Irreps are as follows:

                     mode #   7
                     (  -0.00000   0.00000   ) 
                     (  -0.00000   0.00000   ) 
                     (  -0.00000   0.00000   ) 
                     (   0.00000   0.00000   ) 
                     (  -0.31120   0.00000   ) 
                     (   0.31003   0.55411   ) 
                     (   0.00000   0.00000   ) 
                     (   0.31120   0.00000   ) 
                     (   0.31003   0.55411   ) 

     Representation     8      1 modes -  To be done
     Irreps are as follows:

                     mode #   8
                     (  -0.00000  -0.00000   ) 
                     (  -0.00000  -0.00000   ) 
                     (  -1.00000  -0.00000   ) 
                     (  -0.00000  -0.00000   ) 
                     (  -0.00000  -0.00000   ) 
                     (  -0.00000  -0.00000   ) 
                     (  -0.00000  -0.00000   ) 
                     (  -0.00000  -0.00000   ) 
                     (  -0.00000  -0.00000   ) 

     Representation     9      1 modes -  To be done
     Irreps are as follows:

                     mode #   9
                     (  -0.00000  -0.00000   ) 
                     (  -0.00000  -0.00000   ) 
                     (  -0.00000  -0.00000   ) 
                     (  -0.00000   0.00000   ) 
                     (  -0.63495   0.00000   ) 
                     (  -0.15195  -0.27158   ) 
                     (  -0.00000   0.00000   ) 
                     (   0.63495   0.00000   ) 
                     (  -0.15195  -0.27158   ) 


     Message from routine init_vloc:
     Interpolation table for Vloc re-allocated

     Alpha used in Ewald sum =   2.8000
     PHONON       :   8m14.60s CPU   8m40.38s WALL



     Representation #   1 mode #   1

     Self-consistent Calculation

      iter #   1 total cpu time :   541.8 secs   av.it.:   8.7
      thresh= 1.000E-02 alpha_mix =  0.100 |ddv_scf|^2 =  1.409E-05

      iter #   2 total cpu time :   570.1 secs   av.it.:  12.8
      thresh= 3.754E-04 alpha_mix =  0.100 |ddv_scf|^2 =  2.185E-07

      iter #   3 total cpu time :   598.5 secs   av.it.:  12.9
      thresh= 4.674E-05 alpha_mix =  0.100 |ddv_scf|^2 =  4.007E-08

      iter #   4 total cpu time :   629.8 secs   av.it.:  14.7
      thresh= 2.002E-05 alpha_mix =  0.100 |ddv_scf|^2 =  3.400E-09

      iter #   5 total cpu time :   663.1 secs   av.it.:  15.8
      thresh= 5.831E-06 alpha_mix =  0.100 |ddv_scf|^2 =  1.754E-10

      iter #   6 total cpu time :   695.6 secs   av.it.:  15.1
      thresh= 1.325E-06 alpha_mix =  0.100 |ddv_scf|^2 =  8.917E-11

      iter #   7 total cpu time :   730.4 secs   av.it.:  16.7
      thresh= 9.443E-07 alpha_mix =  0.100 |ddv_scf|^2 =  1.571E-11
