
     Program PWSCF v.7.3.1 starts on 24Feb2026 at 22:45:43 

     This program is part of the open-source Quantum ESPRESSO suite
     for quantum simulation of materials; please cite
         "P. Giannozzi et al., J. Phys.:Condens. Matter 21 395502 (2009);
         "P. Giannozzi et al., J. Phys.:Condens. Matter 29 465901 (2017);
         "P. Giannozzi et al., J. Chem. Phys. 152 154105 (2020);
          URL http://www.quantum-espresso.org", 
     in publications or presentations arising from this work. More details at
     http://www.quantum-espresso.org/quote

     Parallel version (MPI), running on    64 processors

     MPI processes distributed on     2 nodes
     239986 MiB available memory on the printing compute node when the environment starts

     Waiting for input...
     Reading input from standard input

     Current dimensions of program PWSCF are:
     Max number of different atomic species (ntypx) = 10
     Max number of k-points (npk) =  40000
     Max angular momentum in pseudopotentials (lmaxx) =  4

     R & G space division:  proc/nbgrp/npool/nimage =      64
     Subspace diagonalization in iterative solution of the eigenvalue problem:
     a serial algorithm will be used


     Parallelization info
     --------------------
     sticks:   dense  smooth     PW     G-vecs:    dense   smooth      PW
     Min          30      12      3                 7300     1830     275
     Max          31      13      4                 7337     1861     314
     Sum        1945     769    223               468457   118307   18477

     Using Slab Decomposition



     bravais-lattice index     =            4
     lattice parameter (alat)  =       5.9477  a.u.
     unit-cell volume          =    1225.4506 (a.u.)^3
     number of atoms/cell      =            3
     number of atomic types    =            2
     number of electrons       =        26.00
     number of Kohn-Sham states=           13
     kinetic-energy cutoff     =      80.0000  Ry
     charge density cutoff     =     800.0000  Ry
     scf convergence threshold =      1.0E-15
     mixing beta               =       0.2000
     number of iterations used =            8  plain     mixing
     Exchange-correlation= PBESOL
                           (   1   4  10   8   0   0   0)

     celldm(1)=   5.947749  celldm(2)=   0.000000  celldm(3)=   6.725234
     celldm(4)=   0.000000  celldm(5)=   0.000000  celldm(6)=   0.000000

     crystal axes: (cart. coord. in units of alat)
               a(1) = (   1.000000   0.000000   0.000000 )  
               a(2) = (  -0.500000   0.866025   0.000000 )  
               a(3) = (   0.000000   0.000000   6.725234 )  

     reciprocal axes: (cart. coord. in units 2 pi/alat)
               b(1) = (  1.000000  0.577350 -0.000000 )  
               b(2) = (  0.000000  1.154701  0.000000 )  
               b(3) = (  0.000000 -0.000000  0.148694 )  


     PseudoPot. # 1 for Mo read from file:
     ../pseudo/Mo.pbesol.dojo.upf
     MD5 check sum: c40353276b9086539cda6b9e5a66907b
     Pseudo is Norm-conserving + core correction, Zval = 14.0
     Generated using ONCVPSP code by D. R. Hamann
     Using radial grid of 1640 points,  6 beta functions with: 
                l(1) =   0
                l(2) =   0
                l(3) =   1
                l(4) =   1
                l(5) =   2
                l(6) =   2

     PseudoPot. # 2 for S  read from file:
     ../pseudo/S.pbesol.dojo.upf
     MD5 check sum: 501737efeeef1fb1c631cda521d4e019
     Pseudo is Norm-conserving + core correction, Zval =  6.0
     Generated using ONCVPSP code by D. R. Hamann
     Using radial grid of 1146 points,  6 beta functions with: 
                l(1) =   0
                l(2) =   0
                l(3) =   1
                l(4) =   1
                l(5) =   2
                l(6) =   2

     atomic species   valence    mass     pseudopotential
     Mo               14.00    95.95000     Mo( 1.00)
     S                 6.00    32.06500     S ( 1.00)

     12 Sym. Ops. (no inversion) found


                                    s                        frac. trans.

      isym =  1     identity                                     

 cryst.   s( 1) = (     1          0          0      )
                  (     0          1          0      )
                  (     0          0          1      )

 cart.    s( 1) = (  1.0000000  0.0000000  0.0000000 )
                  (  0.0000000  1.0000000  0.0000000 )
                  (  0.0000000  0.0000000  1.0000000 )


      isym =  2     180 deg rotation - cart. axis [0,1,0]        

 cryst.   s( 2) = (    -1          0          0      )
                  (     1          1          0      )
                  (     0          0         -1      )

 cart.    s( 2) = ( -1.0000000  0.0000000  0.0000000 )
                  (  0.0000000  1.0000000  0.0000000 )
                  (  0.0000000  0.0000000 -1.0000000 )


      isym =  3     120 deg rotation - cryst. axis [0,0,1]       

 cryst.   s( 3) = (     0          1          0      )
                  (    -1         -1          0      )
                  (     0          0          1      )

 cart.    s( 3) = ( -0.5000000 -0.8660254  0.0000000 )
                  (  0.8660254 -0.5000000  0.0000000 )
                  (  0.0000000  0.0000000  1.0000000 )


      isym =  4     120 deg rotation - cryst. axis [0,0,-1]      

 cryst.   s( 4) = (    -1         -1          0      )
                  (     1          0          0      )
                  (     0          0          1      )

 cart.    s( 4) = ( -0.5000000  0.8660254  0.0000000 )
                  ( -0.8660254 -0.5000000  0.0000000 )
                  (  0.0000000  0.0000000  1.0000000 )


      isym =  5     180 deg rotation - cryst. axis [1,-1,0]      

 cryst.   s( 5) = (     0         -1          0      )
                  (    -1          0          0      )
                  (     0          0         -1      )

 cart.    s( 5) = (  0.5000000 -0.8660254  0.0000000 )
                  ( -0.8660254 -0.5000000  0.0000000 )
                  (  0.0000000  0.0000000 -1.0000000 )


      isym =  6     180 deg rotation - cryst. axis [2,1,0]       

 cryst.   s( 6) = (     1          1          0      )
                  (     0         -1          0      )
                  (     0          0         -1      )

 cart.    s( 6) = (  0.5000000  0.8660254  0.0000000 )
                  (  0.8660254 -0.5000000  0.0000000 )
                  (  0.0000000  0.0000000 -1.0000000 )


      isym =  7     inv. 180 deg rotation - cart. axis [0,0,1]   

 cryst.   s( 7) = (     1          0          0      )
                  (     0          1          0      )
                  (     0          0         -1      )

 cart.    s( 7) = (  1.0000000  0.0000000  0.0000000 )
                  (  0.0000000  1.0000000  0.0000000 )
                  (  0.0000000  0.0000000 -1.0000000 )


      isym =  8     inv. 180 deg rotation - cart. axis [1,0,0]   

 cryst.   s( 8) = (    -1          0          0      )
                  (     1          1          0      )
                  (     0          0          1      )

 cart.    s( 8) = ( -1.0000000  0.0000000  0.0000000 )
                  (  0.0000000  1.0000000  0.0000000 )
                  (  0.0000000  0.0000000  1.0000000 )


      isym =  9     inv.  60 deg rotation - cryst. axis [0,0,1]  

 cryst.   s( 9) = (    -1         -1          0      )
                  (     1          0          0      )
                  (     0          0         -1      )

 cart.    s( 9) = ( -0.5000000  0.8660254  0.0000000 )
                  ( -0.8660254 -0.5000000  0.0000000 )
                  (  0.0000000  0.0000000 -1.0000000 )


      isym = 10     inv.  60 deg rotation - cryst. axis [0,0,-1] 

 cryst.   s(10) = (     0          1          0      )
                  (    -1         -1          0      )
                  (     0          0         -1      )

 cart.    s(10) = ( -0.5000000 -0.8660254  0.0000000 )
                  (  0.8660254 -0.5000000  0.0000000 )
                  (  0.0000000  0.0000000 -1.0000000 )


      isym = 11     inv. 180 deg rotation - cryst. axis [0,1,0]  

 cryst.   s(11) = (     1          1          0      )
                  (     0         -1          0      )
                  (     0          0          1      )

 cart.    s(11) = (  0.5000000  0.8660254  0.0000000 )
                  (  0.8660254 -0.5000000  0.0000000 )
                  (  0.0000000  0.0000000  1.0000000 )


      isym = 12     inv. 180 deg rotation - cryst. axis [1,1,0]  

 cryst.   s(12) = (     0         -1          0      )
                  (    -1          0          0      )
                  (     0          0          1      )

 cart.    s(12) = (  0.5000000 -0.8660254  0.0000000 )
                  ( -0.8660254 -0.5000000  0.0000000 )
                  (  0.0000000  0.0000000  1.0000000 )


     point group D_3h (-62m)
     there are  6 classes
     the character table:

       E     2C3   3C2   s_h   2S3   3s_v 
A'_1   1.00  1.00  1.00  1.00  1.00  1.00
A'_2   1.00  1.00 -1.00  1.00  1.00 -1.00
E'     2.00 -1.00  0.00  2.00 -1.00  0.00
A''1   1.00  1.00  1.00 -1.00 -1.00 -1.00
A''2   1.00  1.00 -1.00 -1.00 -1.00  1.00
E''    2.00 -1.00  0.00 -2.00  1.00  0.00

     the symmetry operations in each class and the name of the first element:

     E        1
          identity                                               
     2C3      3    4
          120 deg rotation - cryst. axis [0,0,1]                 
     3C2      2    6    5
          180 deg rotation - cart. axis [0,1,0]                  
     s_h      7
          inv. 180 deg rotation - cart. axis [0,0,1]             
     2S3      9   10
          inv.  60 deg rotation - cryst. axis [0,0,1]            
     3s_v     8   11   12
          inv. 180 deg rotation - cart. axis [1,0,0]             

   Cartesian axes

     site n.     atom                  positions (alat units)
         1        Mo     tau(   1) = (   0.0000000   0.5773503   0.0000000  )
         2        S      tau(   2) = (   0.5000000   0.2886751   0.4945030  )
         3        S      tau(   3) = (   0.5000000   0.2886751  -0.4945030  )

   Crystallographic axes

     site n.     atom                  positions (cryst. coord.)
         1        Mo     tau(   1) = (  0.3333333  0.6666667  0.0000000  )
         2        S      tau(   2) = (  0.6666667  0.3333333  0.0735295  )
         3        S      tau(   3) = (  0.6666667  0.3333333 -0.0735295  )

     number of k points=    37
                       cart. coord. in units 2pi/alat
        k(    1) = (   0.0000000   0.0000000   0.0000000), wk =   0.0061728
        k(    2) = (   0.0000000   0.0641500   0.0000000), wk =   0.0370370
        k(    3) = (   0.0000000   0.1283001   0.0000000), wk =   0.0370370
        k(    4) = (   0.0000000   0.1924501   0.0000000), wk =   0.0370370
        k(    5) = (   0.0000000   0.2566001   0.0000000), wk =   0.0370370
        k(    6) = (   0.0000000   0.3207501   0.0000000), wk =   0.0370370
        k(    7) = (   0.0000000   0.3849002   0.0000000), wk =   0.0370370
        k(    8) = (   0.0000000   0.4490502   0.0000000), wk =   0.0370370
        k(    9) = (   0.0000000   0.5132002   0.0000000), wk =   0.0370370
        k(   10) = (   0.0000000  -0.5773503   0.0000000), wk =   0.0185185
        k(   11) = (   0.0555556   0.0962250   0.0000000), wk =   0.0370370
        k(   12) = (   0.0555556   0.1603751   0.0000000), wk =   0.0740741
        k(   13) = (   0.0555556   0.2245251   0.0000000), wk =   0.0740741
        k(   14) = (   0.0555556   0.2886751   0.0000000), wk =   0.0740741
        k(   15) = (   0.0555556   0.3528252   0.0000000), wk =   0.0740741
        k(   16) = (   0.0555556   0.4169752   0.0000000), wk =   0.0740741
        k(   17) = (   0.0555556   0.4811252   0.0000000), wk =   0.0740741
        k(   18) = (   0.0555556   0.5452753   0.0000000), wk =   0.0740741
        k(   19) = (   0.1111111   0.1924501   0.0000000), wk =   0.0370370
        k(   20) = (   0.1111111   0.2566001   0.0000000), wk =   0.0740741
        k(   21) = (   0.1111111   0.3207501   0.0000000), wk =   0.0740741
        k(   22) = (   0.1111111   0.3849002   0.0000000), wk =   0.0740741
        k(   23) = (   0.1111111   0.4490502   0.0000000), wk =   0.0740741
        k(   24) = (   0.1111111   0.5132002   0.0000000), wk =   0.0740741
        k(   25) = (   0.1111111   0.5773503   0.0000000), wk =   0.0370370
        k(   26) = (   0.1666667   0.2886751   0.0000000), wk =   0.0370370
        k(   27) = (   0.1666667   0.3528252   0.0000000), wk =   0.0740741
        k(   28) = (   0.1666667   0.4169752   0.0000000), wk =   0.0740741
        k(   29) = (   0.1666667   0.4811252   0.0000000), wk =   0.0740741
        k(   30) = (   0.1666667   0.5452753   0.0000000), wk =   0.0740741
        k(   31) = (   0.2222222   0.3849002   0.0000000), wk =   0.0370370
        k(   32) = (   0.2222222   0.4490502   0.0000000), wk =   0.0740741
        k(   33) = (   0.2222222   0.5132002   0.0000000), wk =   0.0740741
        k(   34) = (   0.2222222   0.5773503   0.0000000), wk =   0.0370370
        k(   35) = (   0.2777778   0.4811252   0.0000000), wk =   0.0370370
        k(   36) = (   0.2777778   0.5452753   0.0000000), wk =   0.0740741
        k(   37) = (   0.3333333   0.5773503   0.0000000), wk =   0.0123457

                       cryst. coord.
        k(    1) = (   0.0000000   0.0000000   0.0000000), wk =   0.0061728
        k(    2) = (   0.0000000   0.0555556   0.0000000), wk =   0.0370370
        k(    3) = (   0.0000000   0.1111111   0.0000000), wk =   0.0370370
        k(    4) = (   0.0000000   0.1666667   0.0000000), wk =   0.0370370
        k(    5) = (   0.0000000   0.2222222   0.0000000), wk =   0.0370370
        k(    6) = (   0.0000000   0.2777778   0.0000000), wk =   0.0370370
        k(    7) = (   0.0000000   0.3333333   0.0000000), wk =   0.0370370
        k(    8) = (   0.0000000   0.3888889   0.0000000), wk =   0.0370370
        k(    9) = (   0.0000000   0.4444444   0.0000000), wk =   0.0370370
        k(   10) = (   0.0000000  -0.5000000   0.0000000), wk =   0.0185185
        k(   11) = (   0.0555556   0.0555556   0.0000000), wk =   0.0370370
        k(   12) = (   0.0555556   0.1111111   0.0000000), wk =   0.0740741
        k(   13) = (   0.0555556   0.1666667   0.0000000), wk =   0.0740741
        k(   14) = (   0.0555556   0.2222222   0.0000000), wk =   0.0740741
        k(   15) = (   0.0555556   0.2777778   0.0000000), wk =   0.0740741
        k(   16) = (   0.0555556   0.3333333   0.0000000), wk =   0.0740741
        k(   17) = (   0.0555556   0.3888889   0.0000000), wk =   0.0740741
        k(   18) = (   0.0555556   0.4444444   0.0000000), wk =   0.0740741
        k(   19) = (   0.1111111   0.1111111   0.0000000), wk =   0.0370370
        k(   20) = (   0.1111111   0.1666667   0.0000000), wk =   0.0740741
        k(   21) = (   0.1111111   0.2222222   0.0000000), wk =   0.0740741
        k(   22) = (   0.1111111   0.2777778   0.0000000), wk =   0.0740741
        k(   23) = (   0.1111111   0.3333333   0.0000000), wk =   0.0740741
        k(   24) = (   0.1111111   0.3888889   0.0000000), wk =   0.0740741
        k(   25) = (   0.1111111   0.4444444   0.0000000), wk =   0.0370370
        k(   26) = (   0.1666667   0.1666667   0.0000000), wk =   0.0370370
        k(   27) = (   0.1666667   0.2222222   0.0000000), wk =   0.0740741
        k(   28) = (   0.1666667   0.2777778   0.0000000), wk =   0.0740741
        k(   29) = (   0.1666667   0.3333333   0.0000000), wk =   0.0740741
        k(   30) = (   0.1666667   0.3888889   0.0000000), wk =   0.0740741
        k(   31) = (   0.2222222   0.2222222   0.0000000), wk =   0.0370370
        k(   32) = (   0.2222222   0.2777778   0.0000000), wk =   0.0740741
        k(   33) = (   0.2222222   0.3333333   0.0000000), wk =   0.0740741
        k(   34) = (   0.2222222   0.3888889   0.0000000), wk =   0.0370370
        k(   35) = (   0.2777778   0.2777778   0.0000000), wk =   0.0370370
        k(   36) = (   0.2777778   0.3333333   0.0000000), wk =   0.0740741
        k(   37) = (   0.3333333   0.3333333   0.0000000), wk =   0.0123457

     Dense  grid:   468457 G-vectors     FFT dimensions: (  54,  54, 375)

     Smooth grid:   118307 G-vectors     FFT dimensions: (  36,  36, 240)

     Dynamical RAM for                 wfc:       0.05 MB

     Dynamical RAM for     wfc (w. buffer):       1.74 MB

     Dynamical RAM for           str. fact:       0.22 MB

     Dynamical RAM for           local pot:       0.00 MB

     Dynamical RAM for          nlocal pot:       0.19 MB

     Dynamical RAM for                qrad:       4.54 MB

     Dynamical RAM for          rho,v,vnew:       0.74 MB

     Dynamical RAM for               rhoin:       0.25 MB

     Dynamical RAM for            rho*nmix:       1.79 MB

     Dynamical RAM for           G-vectors:       0.43 MB

     Dynamical RAM for          h,s,v(r/c):       0.03 MB

     Dynamical RAM for          <psi|beta>:       0.01 MB

     Dynamical RAM for                 psi:       0.09 MB

     Dynamical RAM for                hpsi:       0.09 MB

     Dynamical RAM for      wfcinit/wfcrot:       0.13 MB

     Estimated static dynamical RAM per process >       9.11 MB

     Estimated max dynamical RAM per process >      11.12 MB

     Estimated total dynamical RAM >     711.49 MB
 ----2D----2D----2D----2D----2D----2D----2D----2D----2D----2D----2D----2D
  The code is running with the 2D cutoff
  Please refer to:
  Sohier, T., Calandra, M., & Mauri, F. (2017), 
  Density functional perturbation theory for gated two-dimensional heterostructures:
  Theoretical developments and application to flexural phonons in graphene.
  Physical Review B, 96(7), 75448. https://doi.org/10.1103/PhysRevB.96.075448
 ----2D----2D----2D----2D----2D----2D----2D----2D----2D----2D----2D----2D

     The initial density is read from file :
     ./tmp/MoS2.save/charge-density

     Starting wfcs are   18 randomized atomic wfcs

     total cpu time spent up to now is        9.7 secs

     per-process dynamical memory:    63.0 Mb

     Self-consistent Calculation

     iteration #  1     ecut=    80.00 Ry     beta= 0.20
     Davidson diagonalization with overlap

---- Real-time Memory Report at c_bands before calling an iterative solver
            80 MiB given to the printing process from OS
            61 MiB allocation reported by mallinfo(arena+hblkhd)
        239425 MiB available memory on the node where the printing process lives
------------------
     ethr =  1.00E-05,  avg # of iterations = 11.5

     Threshold (ethr) on eigenvalues was too large:
     Diagonalizing with lowered threshold

     Davidson diagonalization with overlap

---- Real-time Memory Report at c_bands before calling an iterative solver
            82 MiB given to the printing process from OS
            61 MiB allocation reported by mallinfo(arena+hblkhd)
        239422 MiB available memory on the node where the printing process lives
------------------
     ethr =  2.58E-08,  avg # of iterations = 10.8

     total cpu time spent up to now is       12.9 secs

     total energy              =    -184.83181067 Ry
     estimated scf accuracy    <          8.0E-09 Ry

     iteration #  2     ecut=    80.00 Ry     beta= 0.20
     Davidson diagonalization with overlap

---- Real-time Memory Report at c_bands before calling an iterative solver
            86 MiB given to the printing process from OS
            64 MiB allocation reported by mallinfo(arena+hblkhd)
        239350 MiB available memory on the node where the printing process lives
------------------
     ethr =  3.07E-11,  avg # of iterations = 11.2

     total cpu time spent up to now is       14.5 secs

     total energy              =    -184.83181080 Ry
     estimated scf accuracy    <       0.00000001 Ry

     iteration #  3     ecut=    80.00 Ry     beta= 0.20
     Davidson diagonalization with overlap

---- Real-time Memory Report at c_bands before calling an iterative solver
            88 MiB given to the printing process from OS
            64 MiB allocation reported by mallinfo(arena+hblkhd)
        239344 MiB available memory on the node where the printing process lives
------------------
     ethr =  3.07E-11,  avg # of iterations =  1.6

     total cpu time spent up to now is       15.0 secs

     total energy              =    -184.83181080 Ry
     estimated scf accuracy    <          4.6E-09 Ry

     iteration #  4     ecut=    80.00 Ry     beta= 0.20
     Davidson diagonalization with overlap

---- Real-time Memory Report at c_bands before calling an iterative solver
            89 MiB given to the printing process from OS
            64 MiB allocation reported by mallinfo(arena+hblkhd)
        239344 MiB available memory on the node where the printing process lives
------------------
     ethr =  1.78E-11,  avg # of iterations =  4.0

     total cpu time spent up to now is       15.6 secs

     total energy              =    -184.83181080 Ry
     estimated scf accuracy    <          7.4E-11 Ry

     iteration #  5     ecut=    80.00 Ry     beta= 0.20
     Davidson diagonalization with overlap

---- Real-time Memory Report at c_bands before calling an iterative solver
            89 MiB given to the printing process from OS
            64 MiB allocation reported by mallinfo(arena+hblkhd)
        239344 MiB available memory on the node where the printing process lives
------------------
     ethr =  2.86E-13,  avg # of iterations =  6.5

     total cpu time spent up to now is       16.6 secs

     total energy              =    -184.83181080 Ry
     estimated scf accuracy    <          3.5E-11 Ry

     iteration #  6     ecut=    80.00 Ry     beta= 0.20
     Davidson diagonalization with overlap

---- Real-time Memory Report at c_bands before calling an iterative solver
            90 MiB given to the printing process from OS
            64 MiB allocation reported by mallinfo(arena+hblkhd)
        239340 MiB available memory on the node where the printing process lives
------------------
     ethr =  1.33E-13,  avg # of iterations =  4.6

     total cpu time spent up to now is       17.3 secs

     total energy              =    -184.83181080 Ry
     estimated scf accuracy    <          7.0E-11 Ry

     iteration #  7     ecut=    80.00 Ry     beta= 0.20
     Davidson diagonalization with overlap

---- Real-time Memory Report at c_bands before calling an iterative solver
            90 MiB given to the printing process from OS
            64 MiB allocation reported by mallinfo(arena+hblkhd)
        239337 MiB available memory on the node where the printing process lives
------------------
     ethr =  1.33E-13,  avg # of iterations =  1.4

     total cpu time spent up to now is       17.8 secs

     total energy              =    -184.83181080 Ry
     estimated scf accuracy    <          8.0E-11 Ry

     iteration #  8     ecut=    80.00 Ry     beta= 0.20
     Davidson diagonalization with overlap

---- Real-time Memory Report at c_bands before calling an iterative solver
            90 MiB given to the printing process from OS
            64 MiB allocation reported by mallinfo(arena+hblkhd)
        239337 MiB available memory on the node where the printing process lives
------------------
     ethr =  1.33E-13,  avg # of iterations =  1.0

     total cpu time spent up to now is       18.2 secs

     total energy              =    -184.83181080 Ry
     estimated scf accuracy    <          8.5E-11 Ry

     iteration #  9     ecut=    80.00 Ry     beta= 0.20
     Davidson diagonalization with overlap

---- Real-time Memory Report at c_bands before calling an iterative solver
            90 MiB given to the printing process from OS
            64 MiB allocation reported by mallinfo(arena+hblkhd)
        239335 MiB available memory on the node where the printing process lives
------------------
     ethr =  1.33E-13,  avg # of iterations =  1.0

     total cpu time spent up to now is       18.7 secs

     total energy              =    -184.83181080 Ry
     estimated scf accuracy    <          6.1E-11 Ry

     iteration # 10     ecut=    80.00 Ry     beta= 0.20
     Davidson diagonalization with overlap

---- Real-time Memory Report at c_bands before calling an iterative solver
            91 MiB given to the printing process from OS
            64 MiB allocation reported by mallinfo(arena+hblkhd)
        239333 MiB available memory on the node where the printing process lives
------------------
     ethr =  1.33E-13,  avg # of iterations =  1.0

     total cpu time spent up to now is       19.2 secs

     total energy              =    -184.83181080 Ry
     estimated scf accuracy    <          5.0E-11 Ry

     iteration # 11     ecut=    80.00 Ry     beta= 0.20
     Davidson diagonalization with overlap

---- Real-time Memory Report at c_bands before calling an iterative solver
            91 MiB given to the printing process from OS
            64 MiB allocation reported by mallinfo(arena+hblkhd)
        239332 MiB available memory on the node where the printing process lives
------------------
     ethr =  1.33E-13,  avg # of iterations =  1.0

     total cpu time spent up to now is       19.7 secs

     total energy              =    -184.83181080 Ry
     estimated scf accuracy    <          3.7E-11 Ry

     iteration # 12     ecut=    80.00 Ry     beta= 0.20
     Davidson diagonalization with overlap

---- Real-time Memory Report at c_bands before calling an iterative solver
            91 MiB given to the printing process from OS
            64 MiB allocation reported by mallinfo(arena+hblkhd)
        239331 MiB available memory on the node where the printing process lives
------------------
     ethr =  1.33E-13,  avg # of iterations =  1.0

     total cpu time spent up to now is       20.2 secs

     total energy              =    -184.83181080 Ry
     estimated scf accuracy    <          4.9E-11 Ry

     iteration # 13     ecut=    80.00 Ry     beta= 0.20
     Davidson diagonalization with overlap

---- Real-time Memory Report at c_bands before calling an iterative solver
            91 MiB given to the printing process from OS
            64 MiB allocation reported by mallinfo(arena+hblkhd)
        239298 MiB available memory on the node where the printing process lives
------------------
     ethr =  1.33E-13,  avg # of iterations =  1.0

     total cpu time spent up to now is       20.6 secs

     total energy              =    -184.83181080 Ry
     estimated scf accuracy    <          4.4E-11 Ry

     iteration # 14     ecut=    80.00 Ry     beta= 0.20
     Davidson diagonalization with overlap

---- Real-time Memory Report at c_bands before calling an iterative solver
            91 MiB given to the printing process from OS
            64 MiB allocation reported by mallinfo(arena+hblkhd)
        239324 MiB available memory on the node where the printing process lives
------------------
     ethr =  1.33E-13,  avg # of iterations =  3.1

     total cpu time spent up to now is       21.3 secs

     total energy              =    -184.83181080 Ry
     estimated scf accuracy    <          5.4E-13 Ry

     iteration # 15     ecut=    80.00 Ry     beta= 0.20
     Davidson diagonalization with overlap

---- Real-time Memory Report at c_bands before calling an iterative solver
            91 MiB given to the printing process from OS
            64 MiB allocation reported by mallinfo(arena+hblkhd)
        239324 MiB available memory on the node where the printing process lives
------------------
     ethr =  1.00E-13,  avg # of iterations =  4.6

     total cpu time spent up to now is       22.0 secs

     total energy              =    -184.83181080 Ry
     estimated scf accuracy    <          2.7E-11 Ry

     iteration # 16     ecut=    80.00 Ry     beta= 0.20
     Davidson diagonalization with overlap

---- Real-time Memory Report at c_bands before calling an iterative solver
            91 MiB given to the printing process from OS
            64 MiB allocation reported by mallinfo(arena+hblkhd)
        239332 MiB available memory on the node where the printing process lives
------------------
     ethr =  1.00E-13,  avg # of iterations =  1.0

     total cpu time spent up to now is       22.4 secs

     total energy              =    -184.83181080 Ry
     estimated scf accuracy    <          2.3E-11 Ry

     iteration # 17     ecut=    80.00 Ry     beta= 0.20
     Davidson diagonalization with overlap

---- Real-time Memory Report at c_bands before calling an iterative solver
            91 MiB given to the printing process from OS
            64 MiB allocation reported by mallinfo(arena+hblkhd)
        239332 MiB available memory on the node where the printing process lives
------------------
     ethr =  1.00E-13,  avg # of iterations =  2.0

     total cpu time spent up to now is       22.9 secs

     total energy              =    -184.83181080 Ry
     estimated scf accuracy    <          8.7E-12 Ry

     iteration # 18     ecut=    80.00 Ry     beta= 0.20
     Davidson diagonalization with overlap

---- Real-time Memory Report at c_bands before calling an iterative solver
            91 MiB given to the printing process from OS
            64 MiB allocation reported by mallinfo(arena+hblkhd)
        239332 MiB available memory on the node where the printing process lives
------------------
     ethr =  1.00E-13,  avg # of iterations =  1.0

     total cpu time spent up to now is       23.4 secs

     total energy              =    -184.83181080 Ry
     estimated scf accuracy    <          6.0E-12 Ry

     iteration # 19     ecut=    80.00 Ry     beta= 0.20
     Davidson diagonalization with overlap

---- Real-time Memory Report at c_bands before calling an iterative solver
            91 MiB given to the printing process from OS
            64 MiB allocation reported by mallinfo(arena+hblkhd)
        239332 MiB available memory on the node where the printing process lives
------------------
     ethr =  1.00E-13,  avg # of iterations =  1.0

     total cpu time spent up to now is       23.9 secs

     total energy              =    -184.83181080 Ry
     estimated scf accuracy    <          5.9E-12 Ry

     iteration # 20     ecut=    80.00 Ry     beta= 0.20
     Davidson diagonalization with overlap

---- Real-time Memory Report at c_bands before calling an iterative solver
            91 MiB given to the printing process from OS
            64 MiB allocation reported by mallinfo(arena+hblkhd)
        239332 MiB available memory on the node where the printing process lives
------------------
     ethr =  1.00E-13,  avg # of iterations =  1.0

     total cpu time spent up to now is       24.4 secs

     total energy              =    -184.83181080 Ry
     estimated scf accuracy    <          9.4E-12 Ry

     iteration # 21     ecut=    80.00 Ry     beta= 0.20
     Davidson diagonalization with overlap

---- Real-time Memory Report at c_bands before calling an iterative solver
            91 MiB given to the printing process from OS
            64 MiB allocation reported by mallinfo(arena+hblkhd)
        239332 MiB available memory on the node where the printing process lives
------------------
     ethr =  1.00E-13,  avg # of iterations =  1.0

     total cpu time spent up to now is       24.9 secs

     total energy              =    -184.83181080 Ry
     estimated scf accuracy    <          7.9E-12 Ry

     iteration # 22     ecut=    80.00 Ry     beta= 0.20
     Davidson diagonalization with overlap

---- Real-time Memory Report at c_bands before calling an iterative solver
            91 MiB given to the printing process from OS
            64 MiB allocation reported by mallinfo(arena+hblkhd)
        239332 MiB available memory on the node where the printing process lives
------------------
     ethr =  1.00E-13,  avg # of iterations =  1.0

     total cpu time spent up to now is       25.3 secs

     total energy              =    -184.83181080 Ry
     estimated scf accuracy    <          6.5E-12 Ry

     iteration # 23     ecut=    80.00 Ry     beta= 0.20
     Davidson diagonalization with overlap

---- Real-time Memory Report at c_bands before calling an iterative solver
            91 MiB given to the printing process from OS
            64 MiB allocation reported by mallinfo(arena+hblkhd)
        239332 MiB available memory on the node where the printing process lives
------------------
     ethr =  1.00E-13,  avg # of iterations =  2.1

     total cpu time spent up to now is       25.9 secs

     total energy              =    -184.83181080 Ry
     estimated scf accuracy    <          9.0E-13 Ry

     iteration # 24     ecut=    80.00 Ry     beta= 0.20
     Davidson diagonalization with overlap

---- Real-time Memory Report at c_bands before calling an iterative solver
            91 MiB given to the printing process from OS
            64 MiB allocation reported by mallinfo(arena+hblkhd)
        239332 MiB available memory on the node where the printing process lives
------------------
     ethr =  1.00E-13,  avg # of iterations =  1.0

     total cpu time spent up to now is       26.4 secs

     total energy              =    -184.83181080 Ry
     estimated scf accuracy    <          1.4E-12 Ry

     iteration # 25     ecut=    80.00 Ry     beta= 0.20
     Davidson diagonalization with overlap

---- Real-time Memory Report at c_bands before calling an iterative solver
            91 MiB given to the printing process from OS
            64 MiB allocation reported by mallinfo(arena+hblkhd)
        239332 MiB available memory on the node where the printing process lives
------------------
     ethr =  1.00E-13,  avg # of iterations =  1.0

     total cpu time spent up to now is       26.8 secs

     total energy              =    -184.83181080 Ry
     estimated scf accuracy    <          6.9E-13 Ry

     iteration # 26     ecut=    80.00 Ry     beta= 0.20
     Davidson diagonalization with overlap

---- Real-time Memory Report at c_bands before calling an iterative solver
            91 MiB given to the printing process from OS
            64 MiB allocation reported by mallinfo(arena+hblkhd)
        239332 MiB available memory on the node where the printing process lives
------------------
     ethr =  1.00E-13,  avg # of iterations =  1.0

     total cpu time spent up to now is       27.3 secs

     total energy              =    -184.83181080 Ry
     estimated scf accuracy    <          1.6E-13 Ry

     iteration # 27     ecut=    80.00 Ry     beta= 0.20
     Davidson diagonalization with overlap

---- Real-time Memory Report at c_bands before calling an iterative solver
            91 MiB given to the printing process from OS
            64 MiB allocation reported by mallinfo(arena+hblkhd)
        239332 MiB available memory on the node where the printing process lives
------------------
     ethr =  1.00E-13,  avg # of iterations =  1.0

     total cpu time spent up to now is       27.8 secs

     total energy              =    -184.83181080 Ry
     estimated scf accuracy    <          3.0E-14 Ry

     iteration # 28     ecut=    80.00 Ry     beta= 0.20
     Davidson diagonalization with overlap

---- Real-time Memory Report at c_bands before calling an iterative solver
            91 MiB given to the printing process from OS
            64 MiB allocation reported by mallinfo(arena+hblkhd)
        239332 MiB available memory on the node where the printing process lives
------------------
     ethr =  1.00E-13,  avg # of iterations =  1.0

     total cpu time spent up to now is       28.3 secs

     total energy              =    -184.83181080 Ry
     estimated scf accuracy    <          3.2E-14 Ry

     iteration # 29     ecut=    80.00 Ry     beta= 0.20
     Davidson diagonalization with overlap

---- Real-time Memory Report at c_bands before calling an iterative solver
            91 MiB given to the printing process from OS
            64 MiB allocation reported by mallinfo(arena+hblkhd)
        239332 MiB available memory on the node where the printing process lives
------------------
     ethr =  1.00E-13,  avg # of iterations =  1.0

     total cpu time spent up to now is       28.8 secs

     total energy              =    -184.83181080 Ry
     estimated scf accuracy    <          7.4E-13 Ry

     iteration # 30     ecut=    80.00 Ry     beta= 0.20
     Davidson diagonalization with overlap

---- Real-time Memory Report at c_bands before calling an iterative solver
            91 MiB given to the printing process from OS
            64 MiB allocation reported by mallinfo(arena+hblkhd)
        239332 MiB available memory on the node where the printing process lives
------------------
     ethr =  1.00E-13,  avg # of iterations =  1.0

     total cpu time spent up to now is       29.2 secs

     total energy              =    -184.83181080 Ry
     estimated scf accuracy    <          2.2E-13 Ry

     iteration # 31     ecut=    80.00 Ry     beta= 0.20
     Davidson diagonalization with overlap

---- Real-time Memory Report at c_bands before calling an iterative solver
            91 MiB given to the printing process from OS
            64 MiB allocation reported by mallinfo(arena+hblkhd)
        239332 MiB available memory on the node where the printing process lives
------------------
     ethr =  1.00E-13,  avg # of iterations =  1.0

     total cpu time spent up to now is       29.7 secs

     total energy              =    -184.83181080 Ry
     estimated scf accuracy    <          4.7E-13 Ry

     iteration # 32     ecut=    80.00 Ry     beta= 0.20
     Davidson diagonalization with overlap

---- Real-time Memory Report at c_bands before calling an iterative solver
            91 MiB given to the printing process from OS
            64 MiB allocation reported by mallinfo(arena+hblkhd)
        239332 MiB available memory on the node where the printing process lives
------------------
     ethr =  1.00E-13,  avg # of iterations =  1.0

     total cpu time spent up to now is       30.2 secs

     total energy              =    -184.83181080 Ry
     estimated scf accuracy    <          5.5E-13 Ry

     iteration # 33     ecut=    80.00 Ry     beta= 0.20
     Davidson diagonalization with overlap

---- Real-time Memory Report at c_bands before calling an iterative solver
            91 MiB given to the printing process from OS
            64 MiB allocation reported by mallinfo(arena+hblkhd)
        239332 MiB available memory on the node where the printing process lives
------------------
     ethr =  1.00E-13,  avg # of iterations =  1.0

     total cpu time spent up to now is       30.7 secs

     total energy              =    -184.83181080 Ry
     estimated scf accuracy    <          6.3E-13 Ry

     iteration # 34     ecut=    80.00 Ry     beta= 0.20
     Davidson diagonalization with overlap

---- Real-time Memory Report at c_bands before calling an iterative solver
            91 MiB given to the printing process from OS
            64 MiB allocation reported by mallinfo(arena+hblkhd)
        239332 MiB available memory on the node where the printing process lives
------------------
     ethr =  1.00E-13,  avg # of iterations =  1.0

     total cpu time spent up to now is       31.2 secs

     total energy              =    -184.83181080 Ry
     estimated scf accuracy    <          6.3E-13 Ry

     iteration # 35     ecut=    80.00 Ry     beta= 0.20
     Davidson diagonalization with overlap

---- Real-time Memory Report at c_bands before calling an iterative solver
            91 MiB given to the printing process from OS
            64 MiB allocation reported by mallinfo(arena+hblkhd)
        239332 MiB available memory on the node where the printing process lives
------------------
     ethr =  1.00E-13,  avg # of iterations =  1.0

     total cpu time spent up to now is       31.6 secs

     total energy              =    -184.83181080 Ry
     estimated scf accuracy    <          7.4E-13 Ry

     iteration # 36     ecut=    80.00 Ry     beta= 0.20
     Davidson diagonalization with overlap

---- Real-time Memory Report at c_bands before calling an iterative solver
            91 MiB given to the printing process from OS
            64 MiB allocation reported by mallinfo(arena+hblkhd)
        239332 MiB available memory on the node where the printing process lives
------------------
     ethr =  1.00E-13,  avg # of iterations =  1.0

     total cpu time spent up to now is       32.1 secs

     total energy              =    -184.83181080 Ry
     estimated scf accuracy    <          1.1E-12 Ry

     iteration # 37     ecut=    80.00 Ry     beta= 0.20
     Davidson diagonalization with overlap

---- Real-time Memory Report at c_bands before calling an iterative solver
            91 MiB given to the printing process from OS
            64 MiB allocation reported by mallinfo(arena+hblkhd)
        239332 MiB available memory on the node where the printing process lives
------------------
     ethr =  1.00E-13,  avg # of iterations =  1.0

     total cpu time spent up to now is       32.6 secs

     total energy              =    -184.83181080 Ry
     estimated scf accuracy    <          7.0E-13 Ry

     iteration # 38     ecut=    80.00 Ry     beta= 0.20
     Davidson diagonalization with overlap

---- Real-time Memory Report at c_bands before calling an iterative solver
            91 MiB given to the printing process from OS
            64 MiB allocation reported by mallinfo(arena+hblkhd)
        239332 MiB available memory on the node where the printing process lives
------------------
     ethr =  1.00E-13,  avg # of iterations =  1.0

     total cpu time spent up to now is       33.1 secs

     total energy              =    -184.83181080 Ry
     estimated scf accuracy    <          4.6E-13 Ry

     iteration # 39     ecut=    80.00 Ry     beta= 0.20
     Davidson diagonalization with overlap

---- Real-time Memory Report at c_bands before calling an iterative solver
            91 MiB given to the printing process from OS
            64 MiB allocation reported by mallinfo(arena+hblkhd)
        239333 MiB available memory on the node where the printing process lives
------------------
     ethr =  1.00E-13,  avg # of iterations =  1.0

     total cpu time spent up to now is       33.5 secs

     total energy              =    -184.83181080 Ry
     estimated scf accuracy    <          5.0E-13 Ry

     iteration # 40     ecut=    80.00 Ry     beta= 0.20
     Davidson diagonalization with overlap

---- Real-time Memory Report at c_bands before calling an iterative solver
            91 MiB given to the printing process from OS
            64 MiB allocation reported by mallinfo(arena+hblkhd)
        239333 MiB available memory on the node where the printing process lives
------------------
     ethr =  1.00E-13,  avg # of iterations =  1.0

     total cpu time spent up to now is       34.0 secs

     total energy              =    -184.83181080 Ry
     estimated scf accuracy    <          4.1E-13 Ry

     iteration # 41     ecut=    80.00 Ry     beta= 0.20
     Davidson diagonalization with overlap

---- Real-time Memory Report at c_bands before calling an iterative solver
            91 MiB given to the printing process from OS
            64 MiB allocation reported by mallinfo(arena+hblkhd)
        239333 MiB available memory on the node where the printing process lives
------------------
     ethr =  1.00E-13,  avg # of iterations =  1.0

     total cpu time spent up to now is       34.5 secs

     total energy              =    -184.83181080 Ry
     estimated scf accuracy    <          3.2E-13 Ry

     iteration # 42     ecut=    80.00 Ry     beta= 0.20
     Davidson diagonalization with overlap

---- Real-time Memory Report at c_bands before calling an iterative solver
            91 MiB given to the printing process from OS
            64 MiB allocation reported by mallinfo(arena+hblkhd)
        239333 MiB available memory on the node where the printing process lives
------------------
     ethr =  1.00E-13,  avg # of iterations =  1.0

     total cpu time spent up to now is       35.0 secs

     total energy              =    -184.83181080 Ry
     estimated scf accuracy    <          1.1E-13 Ry

     iteration # 43     ecut=    80.00 Ry     beta= 0.20
     Davidson diagonalization with overlap

---- Real-time Memory Report at c_bands before calling an iterative solver
            91 MiB given to the printing process from OS
            64 MiB allocation reported by mallinfo(arena+hblkhd)
        239333 MiB available memory on the node where the printing process lives
------------------
     ethr =  1.00E-13,  avg # of iterations =  1.0

     total cpu time spent up to now is       35.5 secs

     total energy              =    -184.83181080 Ry
     estimated scf accuracy    <          1.1E-13 Ry

     iteration # 44     ecut=    80.00 Ry     beta= 0.20
     Davidson diagonalization with overlap

---- Real-time Memory Report at c_bands before calling an iterative solver
            91 MiB given to the printing process from OS
            64 MiB allocation reported by mallinfo(arena+hblkhd)
        239333 MiB available memory on the node where the printing process lives
------------------
     ethr =  1.00E-13,  avg # of iterations =  1.0

     total cpu time spent up to now is       35.9 secs

     total energy              =    -184.83181080 Ry
     estimated scf accuracy    <          2.9E-13 Ry

     iteration # 45     ecut=    80.00 Ry     beta= 0.20
     Davidson diagonalization with overlap

---- Real-time Memory Report at c_bands before calling an iterative solver
            91 MiB given to the printing process from OS
            64 MiB allocation reported by mallinfo(arena+hblkhd)
        239333 MiB available memory on the node where the printing process lives
------------------
     ethr =  1.00E-13,  avg # of iterations =  1.0

     total cpu time spent up to now is       36.4 secs

     total energy              =    -184.83181080 Ry
     estimated scf accuracy    <          1.8E-13 Ry

     iteration # 46     ecut=    80.00 Ry     beta= 0.20
     Davidson diagonalization with overlap

---- Real-time Memory Report at c_bands before calling an iterative solver
            91 MiB given to the printing process from OS
            64 MiB allocation reported by mallinfo(arena+hblkhd)
        239333 MiB available memory on the node where the printing process lives
------------------
     ethr =  1.00E-13,  avg # of iterations =  1.0

     total cpu time spent up to now is       36.9 secs

     total energy              =    -184.83181080 Ry
     estimated scf accuracy    <          6.5E-15 Ry

     iteration # 47     ecut=    80.00 Ry     beta= 0.20
     Davidson diagonalization with overlap

---- Real-time Memory Report at c_bands before calling an iterative solver
            91 MiB given to the printing process from OS
            64 MiB allocation reported by mallinfo(arena+hblkhd)
        239333 MiB available memory on the node where the printing process lives
------------------
     ethr =  1.00E-13,  avg # of iterations =  1.0

     total cpu time spent up to now is       37.4 secs

     total energy              =    -184.83181080 Ry
     estimated scf accuracy    <          2.5E-15 Ry

     iteration # 48     ecut=    80.00 Ry     beta= 0.20
     Davidson diagonalization with overlap

---- Real-time Memory Report at c_bands before calling an iterative solver
            91 MiB given to the printing process from OS
            64 MiB allocation reported by mallinfo(arena+hblkhd)
        239309 MiB available memory on the node where the printing process lives
------------------
     ethr =  1.00E-13,  avg # of iterations =  1.0

     total cpu time spent up to now is       37.8 secs

     total energy              =    -184.83181080 Ry
     estimated scf accuracy    <          3.1E-14 Ry

     iteration # 49     ecut=    80.00 Ry     beta= 0.20
     Davidson diagonalization with overlap

---- Real-time Memory Report at c_bands before calling an iterative solver
            91 MiB given to the printing process from OS
            64 MiB allocation reported by mallinfo(arena+hblkhd)
        239328 MiB available memory on the node where the printing process lives
------------------
     ethr =  1.00E-13,  avg # of iterations =  1.0

     total cpu time spent up to now is       38.3 secs

     total energy              =    -184.83181080 Ry
     estimated scf accuracy    <          3.7E-14 Ry

     iteration # 50     ecut=    80.00 Ry     beta= 0.20
     Davidson diagonalization with overlap

---- Real-time Memory Report at c_bands before calling an iterative solver
            91 MiB given to the printing process from OS
            64 MiB allocation reported by mallinfo(arena+hblkhd)
        239328 MiB available memory on the node where the printing process lives
------------------
     ethr =  1.00E-13,  avg # of iterations =  1.0

     total cpu time spent up to now is       38.8 secs

     total energy              =    -184.83181080 Ry
     estimated scf accuracy    <          3.1E-14 Ry

     iteration # 51     ecut=    80.00 Ry     beta= 0.20
     Davidson diagonalization with overlap

---- Real-time Memory Report at c_bands before calling an iterative solver
            91 MiB given to the printing process from OS
            64 MiB allocation reported by mallinfo(arena+hblkhd)
        239328 MiB available memory on the node where the printing process lives
------------------
     ethr =  1.00E-13,  avg # of iterations =  1.0

     total cpu time spent up to now is       39.3 secs

     total energy              =    -184.83181080 Ry
     estimated scf accuracy    <          2.0E-14 Ry

     iteration # 52     ecut=    80.00 Ry     beta= 0.20
     Davidson diagonalization with overlap

---- Real-time Memory Report at c_bands before calling an iterative solver
            91 MiB given to the printing process from OS
            64 MiB allocation reported by mallinfo(arena+hblkhd)
        239328 MiB available memory on the node where the printing process lives
------------------
     ethr =  1.00E-13,  avg # of iterations =  1.0

     total cpu time spent up to now is       39.8 secs

     total energy              =    -184.83181080 Ry
     estimated scf accuracy    <          3.8E-15 Ry

     iteration # 53     ecut=    80.00 Ry     beta= 0.20
     Davidson diagonalization with overlap

---- Real-time Memory Report at c_bands before calling an iterative solver
            91 MiB given to the printing process from OS
            64 MiB allocation reported by mallinfo(arena+hblkhd)
        239328 MiB available memory on the node where the printing process lives
------------------
     ethr =  1.00E-13,  avg # of iterations =  1.0

     total cpu time spent up to now is       40.2 secs

     total energy              =    -184.83181080 Ry
     estimated scf accuracy    <          1.4E-14 Ry

     iteration # 54     ecut=    80.00 Ry     beta= 0.20
     Davidson diagonalization with overlap

---- Real-time Memory Report at c_bands before calling an iterative solver
            91 MiB given to the printing process from OS
            64 MiB allocation reported by mallinfo(arena+hblkhd)
        239328 MiB available memory on the node where the printing process lives
------------------
     ethr =  1.00E-13,  avg # of iterations =  1.0

     total cpu time spent up to now is       40.7 secs

     total energy              =    -184.83181080 Ry
     estimated scf accuracy    <          1.9E-15 Ry

     iteration # 55     ecut=    80.00 Ry     beta= 0.20
     Davidson diagonalization with overlap

---- Real-time Memory Report at c_bands before calling an iterative solver
            91 MiB given to the printing process from OS
            64 MiB allocation reported by mallinfo(arena+hblkhd)
        239328 MiB available memory on the node where the printing process lives
------------------
     ethr =  1.00E-13,  avg # of iterations =  1.0

     total cpu time spent up to now is       41.2 secs

     total energy              =    -184.83181080 Ry
     estimated scf accuracy    <          1.3E-15 Ry

     iteration # 56     ecut=    80.00 Ry     beta= 0.20
     Davidson diagonalization with overlap

---- Real-time Memory Report at c_bands before calling an iterative solver
            91 MiB given to the printing process from OS
            64 MiB allocation reported by mallinfo(arena+hblkhd)
        239328 MiB available memory on the node where the printing process lives
------------------
     ethr =  1.00E-13,  avg # of iterations =  1.0

     total cpu time spent up to now is       41.7 secs

     total energy              =    -184.83181080 Ry
     estimated scf accuracy    <          1.2E-15 Ry

     iteration # 57     ecut=    80.00 Ry     beta= 0.20
     Davidson diagonalization with overlap

---- Real-time Memory Report at c_bands before calling an iterative solver
            91 MiB given to the printing process from OS
            64 MiB allocation reported by mallinfo(arena+hblkhd)
        239328 MiB available memory on the node where the printing process lives
------------------
     ethr =  1.00E-13,  avg # of iterations =  1.0

     total cpu time spent up to now is       42.1 secs

     End of self-consistent calculation

          k = 0.0000 0.0000 0.0000 ( 14903 PWs)   bands (ev):

   -66.6931 -40.8960 -40.6372 -40.6372 -20.1785 -18.8130 -11.7262  -8.6012
    -8.6012  -7.7928  -7.4461  -7.4461  -6.0182

     occupation numbers 
     1.0000   1.0000   1.0000   1.0000   1.0000   1.0000   1.0000   1.0000
     1.0000   1.0000   1.0000   1.0000   1.0000

          k = 0.0000 0.0642 0.0000 ( 14913 PWs)   bands (ev):

   -66.6918 -40.8934 -40.6504 -40.6402 -20.1298 -18.7933 -11.6708  -8.7110
    -8.5501  -8.0734  -7.5253  -7.2352  -6.0364

     occupation numbers 
     1.0000   1.0000   1.0000   1.0000   1.0000   1.0000   1.0000   1.0000
     1.0000   1.0000   1.0000   1.0000   1.0000

          k = 0.0000 0.1283 0.0000 ( 14905 PWs)   bands (ev):

   -66.6880 -40.8859 -40.6882 -40.6488 -19.9872 -18.7354 -11.5153  -9.0017
    -8.5021  -8.4014  -7.7359  -7.0413  -6.1108

     occupation numbers 
     1.0000   1.0000   1.0000   1.0000   1.0000   1.0000   1.0000   1.0000
     1.0000   1.0000   1.0000   1.0000   1.0000

          k = 0.0000 0.1925 0.0000 ( 14865 PWs)   bands (ev):

   -66.6821 -40.8744 -40.7457 -40.6619 -19.7605 -18.6436 -11.2985  -9.3785
    -8.9530  -8.1695  -8.0201  -7.0290  -6.2879

     occupation numbers 
     1.0000   1.0000   1.0000   1.0000   1.0000   1.0000   1.0000   1.0000
     1.0000   1.0000   1.0000   1.0000   1.0000

          k = 0.0000 0.2566 0.0000 ( 14823 PWs)   bands (ev):

   -66.6749 -40.8603 -40.8156 -40.6778 -19.4665 -18.5251 -11.1156  -9.7158
    -9.4085  -8.3233  -7.8795  -7.1810  -6.5742

     occupation numbers 
     1.0000   1.0000   1.0000   1.0000   1.0000   1.0000   1.0000   1.0000
     1.0000   1.0000   1.0000   1.0000   1.0000

          k = 0.0000 0.3208 0.0000 ( 14833 PWs)   bands (ev):

   -66.6672 -40.8890 -40.8452 -40.6948 -19.1298 -18.3909 -11.1256  -9.8786
    -9.8536  -8.6072  -7.5678  -7.4007  -6.8625

     occupation numbers 
     1.0000   1.0000   1.0000   1.0000   1.0000   1.0000   1.0000   1.0000
     1.0000   1.0000   1.0000   1.0000   1.0000

          k = 0.0000 0.3849 0.0000 ( 14798 PWs)   bands (ev):

   -66.6600 -40.9574 -40.8310 -40.7107 -18.7843 -18.2557 -11.3465 -10.2614
    -9.9135  -8.8467  -7.6036  -7.2785  -6.9877

     occupation numbers 
     1.0000   1.0000   1.0000   1.0000   1.0000   1.0000   1.0000   1.0000
     1.0000   1.0000   1.0000   1.0000   1.0000

          k = 0.0000 0.4491 0.0000 ( 14778 PWs)   bands (ev):

   -66.6541 -41.0125 -40.8194 -40.7236 -18.4751 -18.1379 -11.6177 -10.5944
    -9.9839  -9.0267  -7.7518  -7.0528  -6.8928

     occupation numbers 
     1.0000   1.0000   1.0000   1.0000   1.0000   1.0000   1.0000   1.0000
     1.0000   1.0000   1.0000   1.0000   1.0000

          k = 0.0000 0.5132 0.0000 ( 14738 PWs)   bands (ev):

   -66.6503 -41.0483 -40.8118 -40.7320 -18.2558 -18.0567 -11.8236 -10.8137
   -10.0802  -9.1379  -7.8382  -6.9147  -6.7088

     occupation numbers 
     1.0000   1.0000   1.0000   1.0000   1.0000   1.0000   1.0000   1.0000
     1.0000   1.0000   1.0000   1.0000   1.0000

          k = 0.0000-0.5774 0.0000 ( 14754 PWs)   bands (ev):

   -66.6490 -41.0607 -40.8092 -40.7349 -18.1758 -18.0277 -11.9001 -10.8904
   -10.1232  -9.1755  -7.8662  -6.8690  -6.6203

     occupation numbers 
     1.0000   1.0000   1.0000   1.0000   1.0000   1.0000   1.0000   1.0000
     1.0000   1.0000   1.0000   1.0000   1.0000

          k = 0.0556 0.0962 0.0000 ( 14895 PWs)   bands (ev):

   -66.6892 -40.8884 -40.6756 -40.6463 -20.0341 -18.7545 -11.5650  -8.9100
    -8.4514  -8.3749  -7.6979  -7.0558  -6.0825

     occupation numbers 
     1.0000   1.0000   1.0000   1.0000   1.0000   1.0000   1.0000   1.0000
     1.0000   1.0000   1.0000   1.0000   1.0000

          k = 0.0556 0.1604 0.0000 ( 14862 PWs)   bands (ev):

   -66.6844 -40.8789 -40.7224 -40.6579 -19.8494 -18.6795 -11.3760  -9.2396
    -8.7613  -8.2664  -8.0027  -6.9391  -6.2086

     occupation numbers 
     1.0000   1.0000   1.0000   1.0000   1.0000   1.0000   1.0000   1.0000
     1.0000   1.0000   1.0000   1.0000   1.0000

          k = 0.0556 0.2245 0.0000 ( 14842 PWs)   bands (ev):

   -66.6778 -40.8661 -40.7849 -40.6736 -19.5887 -18.5740 -11.1657  -9.5919
    -9.1814  -8.3420  -8.0207  -6.9886  -6.4443

     occupation numbers 
     1.0000   1.0000   1.0000   1.0000   1.0000   1.0000   1.0000   1.0000
     1.0000   1.0000   1.0000   1.0000   1.0000

          k = 0.0556 0.2887 0.0000 ( 14839 PWs)   bands (ev):

   -66.6704 -40.8553 -40.8515 -40.6914 -19.2726 -18.4469 -11.0687  -9.8276
    -9.6254  -8.6427  -7.7598  -7.1728  -6.7301

     occupation numbers 
     1.0000   1.0000   1.0000   1.0000   1.0000   1.0000   1.0000   1.0000
     1.0000   1.0000   1.0000   1.0000   1.0000

          k = 0.0556 0.3528 0.0000 ( 14827 PWs)   bands (ev):

   -66.6630 -40.9249 -40.8368 -40.7091 -18.9300 -18.3109 -11.2012 -10.0664
    -9.8819  -8.8734  -7.5538  -7.4043  -6.8901

     occupation numbers 
     1.0000   1.0000   1.0000   1.0000   1.0000   1.0000   1.0000   1.0000
     1.0000   1.0000   1.0000   1.0000   1.0000

          k = 0.0556 0.4170 0.0000 ( 14797 PWs)   bands (ev):

   -66.6564 -40.9854 -40.8239 -40.7247 -18.5998 -18.1825 -11.4573 -10.4576
    -9.9168  -9.0337  -7.6143  -7.4141  -6.8186

     occupation numbers 
     1.0000   1.0000   1.0000   1.0000   1.0000   1.0000   1.0000   1.0000
     1.0000   1.0000   1.0000   1.0000   1.0000

          k = 0.0556 0.4811 0.0000 ( 14761 PWs)   bands (ev):

   -66.6515 -41.0301 -40.8143 -40.7362 -18.3320 -18.0811 -11.6950 -10.7509
   -10.0125  -9.1333  -7.7664  -7.2746  -6.6428

     occupation numbers 
     1.0000   1.0000   1.0000   1.0000   1.0000   1.0000   1.0000   1.0000
     1.0000   1.0000   1.0000   1.0000   1.0000

          k = 0.0556 0.5453 0.0000 ( 14745 PWs)   bands (ev):

   -66.6490 -41.0537 -40.8092 -40.7423 -18.1794 -18.0246 -11.8348 -10.9082
   -10.0937  -9.1807  -7.8450  -7.1831  -6.5020

     occupation numbers 
     1.0000   1.0000   1.0000   1.0000   1.0000   1.0000   1.0000   1.0000
     1.0000   1.0000   1.0000   1.0000   1.0000

          k = 0.1111 0.1925 0.0000 ( 14835 PWs)   bands (ev):

   -66.6789 -40.8681 -40.7728 -40.6736 -19.6305 -18.5907 -11.1856  -9.5388
    -9.0519  -8.4391  -8.0796  -6.8605  -6.3961

     occupation numbers 
     1.0000   1.0000   1.0000   1.0000   1.0000   1.0000   1.0000   1.0000
     1.0000   1.0000   1.0000   1.0000   1.0000

          k = 0.1111 0.2566 0.0000 ( 14830 PWs)   bands (ev):

   -66.6721 -40.8548 -40.8333 -40.6936 -19.3468 -18.4757 -11.0392  -9.7780
    -9.4019  -8.8441  -7.9022  -6.9217  -6.6410

     occupation numbers 
     1.0000   1.0000   1.0000   1.0000   1.0000   1.0000   1.0000   1.0000
     1.0000   1.0000   1.0000   1.0000   1.0000

          k = 0.1111 0.3208 0.0000 ( 14835 PWs)   bands (ev):

   -66.6649 -40.8968 -40.8406 -40.7151 -19.0227 -18.3449 -11.0745  -9.8559
    -9.8413  -9.0785  -7.8277  -7.1131  -6.8026

     occupation numbers 
     1.0000   1.0000   1.0000   1.0000   1.0000   1.0000   1.0000   1.0000
     1.0000   1.0000   1.0000   1.0000   1.0000

          k = 0.1111 0.3849 0.0000 ( 14793 PWs)   bands (ev):

   -66.6581 -40.9558 -40.8273 -40.7354 -18.6914 -18.2127 -11.2709 -10.3195
    -9.8234  -9.1811  -7.8456  -7.3636  -6.7721

     occupation numbers 
     1.0000   1.0000   1.0000   1.0000   1.0000   1.0000   1.0000   1.0000
     1.0000   1.0000   1.0000   1.0000   1.0000

          k = 0.1111 0.4491 0.0000 ( 14783 PWs)   bands (ev):

   -66.6526 -41.0034 -40.8164 -40.7519 -18.3964 -18.0970 -11.4927 -10.7016
    -9.8906  -9.2098  -7.8117  -7.6037  -6.6215

     occupation numbers 
     1.0000   1.0000   1.0000   1.0000   1.0000   1.0000   1.0000   1.0000
     1.0000   1.0000   1.0000   1.0000   1.0000

          k = 0.1111 0.5132 0.0000 ( 14769 PWs)   bands (ev):

   -66.6490 -41.0343 -40.8092 -40.7626 -18.1886 -18.0169 -11.6560 -10.9510
   -10.0048  -9.2030  -7.7779  -7.7410  -6.4471

     occupation numbers 
     1.0000   1.0000   1.0000   1.0000   1.0000   1.0000   1.0000   1.0000
     1.0000   1.0000   1.0000   1.0000   1.0000

          k = 0.1111 0.5774 0.0000 ( 14758 PWs)   bands (ev):

   -66.6477 -41.0450 -40.8068 -40.7664 -18.1130 -17.9881 -11.7160 -11.0376
   -10.0571  -9.1952  -7.8424  -7.7100  -6.3653

     occupation numbers 
     1.0000   1.0000   1.0000   1.0000   1.0000   1.0000   1.0000   1.0000
     1.0000   1.0000   1.0000   1.0000   1.0000

          k = 0.1667 0.2887 0.0000 ( 14833 PWs)   bands (ev):

   -66.6656 -40.8851 -40.8419 -40.7191 -19.0545 -18.3564 -11.0232  -9.8221
    -9.7249  -9.2234  -7.9363  -6.9771  -6.7729

     occupation numbers 
     1.0000   1.0000   1.0000   1.0000   1.0000   1.0000   1.0000   1.0000
     1.0000   1.0000   1.0000   1.0000   1.0000

          k = 0.1667 0.3528 0.0000 ( 14822 PWs)   bands (ev):

   -66.6590 -40.9347 -40.8290 -40.7464 -18.7396 -18.2278 -11.1407 -10.2076
    -9.7430  -9.3319  -8.1377  -7.1663  -6.7630

     occupation numbers 
     1.0000   1.0000   1.0000   1.0000   1.0000   1.0000   1.0000   1.0000
     1.0000   1.0000   1.0000   1.0000   1.0000

          k = 0.1667 0.4170 0.0000 ( 14791 PWs)   bands (ev):

   -66.6532 -40.9771 -40.8177 -40.7712 -18.4394 -18.1055 -11.2978 -10.6607
    -9.7278  -9.3136  -8.3129  -7.4269  -6.6456

     occupation numbers 
     1.0000   1.0000   1.0000   1.0000   1.0000   1.0000   1.0000   1.0000
     1.0000   1.0000   1.0000   1.0000   1.0000

          k = 0.1667 0.4811 0.0000 ( 14782 PWs)   bands (ev):

   -66.6490 -41.0079 -40.8093 -40.7901 -18.1989 -18.0081 -11.4229 -10.9965
    -9.8514  -9.2407  -8.3533  -7.6805  -6.4613

     occupation numbers 
     1.0000   1.0000   1.0000   1.0000   1.0000   1.0000   1.0000   1.0000
     1.0000   1.0000   1.0000   1.0000   1.0000

          k = 0.1667 0.5453 0.0000 ( 14779 PWs)   bands (ev):

   -66.6467 -41.0242 -40.8048 -40.8002 -18.0635 -17.9535 -11.4885 -11.1744
    -9.9746  -9.1731  -8.3408  -7.8445  -6.3031

     occupation numbers 
     1.0000   1.0000   1.0000   1.0000   1.0000   1.0000   1.0000   1.0000
     1.0000   1.0000   1.0000   1.0000   1.0000

          k = 0.2222 0.3849 0.0000 ( 14789 PWs)   bands (ev):

   -66.6535 -40.9652 -40.8182 -40.7807 -18.4545 -18.1082 -11.2149 -10.6431
    -9.6249  -9.3607  -8.5482  -7.3500  -6.6608

     occupation numbers 
     1.0000   1.0000   1.0000   1.0000   1.0000   1.0000   1.0000   1.0000
     1.0000   1.0000   1.0000   1.0000   1.0000

          k = 0.2222 0.4491 0.0000 ( 14777 PWs)   bands (ev):

   -66.6490 -40.9864 -40.8124 -40.8093 -18.2056 -18.0023 -11.2476 -11.0246
    -9.6434  -9.2706  -8.8563  -7.6058  -6.4861

     occupation numbers 
     1.0000   1.0000   1.0000   1.0000   1.0000   1.0000   1.0000   1.0000
     1.0000   1.0000   1.0000   1.0000   1.0000

          k = 0.2222 0.5132 0.0000 ( 14789 PWs)   bands (ev):

   -66.6460 -40.9981 -40.8350 -40.8035 -18.0337 -17.9284 -11.2775 -11.2311
    -9.8338  -9.1431  -8.9497  -7.8445  -6.2751

     occupation numbers 
     1.0000   1.0000   1.0000   1.0000   1.0000   1.0000   1.0000   1.0000
     1.0000   1.0000   1.0000   1.0000   1.0000

          k = 0.2222 0.5774 0.0000 ( 14800 PWs)   bands (ev):

   -66.6450 -41.0017 -40.8433 -40.8015 -17.9720 -17.9017 -11.3658 -11.2113
    -9.9438  -9.0772  -8.9592  -7.9497  -6.1702

     occupation numbers 
     1.0000   1.0000   1.0000   1.0000   1.0000   1.0000   1.0000   1.0000
     1.0000   1.0000   1.0000   1.0000   1.0000

          k = 0.2778 0.4811 0.0000 ( 14764 PWs)   bands (ev):

   -66.6458 -40.9840 -40.8522 -40.8030 -18.0238 -17.9191 -11.3156 -11.1066
    -9.6718  -9.3087  -9.1304  -7.8432  -6.2665

     occupation numbers 
     1.0000   1.0000   1.0000   1.0000   1.0000   1.0000   1.0000   1.0000
     1.0000   1.0000   1.0000   1.0000   1.0000

          k = 0.2778 0.5453 0.0000 ( 14778 PWs)   bands (ev):

   -66.6441 -40.9760 -40.8801 -40.7997 -17.9241 -17.8723 -11.4748 -10.9277
    -9.9378  -9.4155  -8.9903  -8.0361  -6.0734

     occupation numbers 
     1.0000   1.0000   1.0000   1.0000   1.0000   1.0000   1.0000   1.0000
     1.0000   1.0000   1.0000   1.0000   1.0000

          k = 0.3333 0.5774 0.0000 ( 14772 PWs)   bands (ev):

   -66.6434 -40.9567 -40.9074 -40.7984 -17.8857 -17.8520 -11.5453 -10.6799
   -10.1581  -9.5376  -8.9048  -8.1349  -5.9734

     occupation numbers 
     1.0000   1.0000   1.0000   1.0000   1.0000   1.0000   1.0000   1.0000
     1.0000   1.0000   1.0000   1.0000   1.0000

     highest occupied level (ev):    -5.9734

!    total energy              =    -184.83181080 Ry
     estimated scf accuracy    <          6.4E-16 Ry

     The total energy is the sum of the following terms:
     one-electron contribution =   -2099.89568629 Ry
     hartree contribution      =    1045.51977211 Ry
     xc contribution           =     -33.15855897 Ry
     ewald contribution        =     902.70266236 Ry

     convergence has been achieved in  57 iterations

     Writing all to output data dir ./tmp/MoS2.save/ :
     XML data file, charge density, pseudopotentials, collected wavefunctions

     init_run     :      1.91s CPU      2.40s WALL (       1 calls)
     electrons    :     30.55s CPU     32.52s WALL (       1 calls)

     Called by init_run:
     wfcinit      :      0.26s CPU      0.31s WALL (       1 calls)
     wfcinit:atom :      0.00s CPU      0.00s WALL (      37 calls)
     wfcinit:wfcr :      0.24s CPU      0.29s WALL (      37 calls)
     potinit      :      0.83s CPU      0.88s WALL (       1 calls)
     hinit0       :      0.25s CPU      0.31s WALL (       1 calls)

     Called by electrons:
     c_bands      :     25.22s CPU     26.94s WALL (      58 calls)
     sum_band     :      4.43s CPU      4.60s WALL (      58 calls)
     v_of_rho     :      0.69s CPU      0.70s WALL (      58 calls)
     v_h          :      0.04s CPU      0.04s WALL (      58 calls)
     v_xc         :      0.65s CPU      0.65s WALL (      58 calls)
     mix_rho      :      0.12s CPU      0.12s WALL (      58 calls)

     Called by c_bands:
     init_us_2    :      0.49s CPU      0.51s WALL (    4329 calls)
     cegterg      :     23.86s CPU     24.94s WALL (    2146 calls)

     Called by sum_band:
     sum_band:wei :      0.00s CPU      0.00s WALL (      58 calls)
     sum_band:loo :      4.33s CPU      4.49s WALL (      58 calls)
     sum_band:buf :      0.01s CPU      0.01s WALL (    2146 calls)
     sum_band:ini :      0.25s CPU      0.26s WALL (    2146 calls)

     Called by *egterg:
     cdiaghg      :      1.66s CPU      1.81s WALL (    6159 calls)
     cegterg:over :      0.63s CPU      0.65s WALL (    4050 calls)
     cegterg:upda :      0.15s CPU      0.16s WALL (    4050 calls)
     cegterg:last :      0.17s CPU      0.17s WALL (    3276 calls)
     h_psi        :     20.89s CPU     21.83s WALL (    6233 calls)
     g_psi        :      0.04s CPU      0.04s WALL (    4050 calls)

     Called by h_psi:
     h_psi:calbec :      0.86s CPU      0.92s WALL (    6233 calls)
     vloc_psi     :     19.51s CPU     20.36s WALL (    6233 calls)
     add_vuspsi   :      0.45s CPU      0.46s WALL (    6233 calls)

     General routines
     calbec       :      0.84s CPU      0.91s WALL (    6233 calls)
     fft          :      0.57s CPU      0.63s WALL (     695 calls)
     ffts         :      0.62s CPU      0.62s WALL (     116 calls)
     fftw         :     21.72s CPU     22.63s WALL (  161876 calls)
     interpolate  :      0.64s CPU      0.64s WALL (      58 calls)

     Parallel routines

     PWSCF        :     34.09s CPU     43.39s WALL


   This run was terminated on:  22:46:26  24Feb2026            

=------------------------------------------------------------------------------=
   JOB DONE.
=------------------------------------------------------------------------------=
