
     Program PHONON v.7.3.1 starts on 24Feb2026 at 22:25:43 

     This program is part of the open-source Quantum ESPRESSO suite
     for quantum simulation of materials; please cite
         "P. Giannozzi et al., J. Phys.:Condens. Matter 21 395502 (2009);
         "P. Giannozzi et al., J. Phys.:Condens. Matter 29 465901 (2017);
         "P. Giannozzi et al., J. Chem. Phys. 152 154105 (2020);
          URL http://www.quantum-espresso.org", 
     in publications or presentations arising from this work. More details at
     http://www.quantum-espresso.org/quote

     Parallel version (MPI), running on   128 processors

     MPI processes distributed on     4 nodes
     240665 MiB available memory on the printing compute node when the environment starts

     Waiting for input...
     Reading input from standard input
      Title line not specified: using 'default'.

     Reading xml data from directory:

     ./_ph0/MoS2.save/
     Message from routine qexsd_readschema :
     input info not found or not readable in xml file

     R & G space division:  proc/nbgrp/npool/nimage =     128
     Subspace diagonalization in iterative solution of the eigenvalue problem:
     a serial algorithm will be used


     IMPORTANT: XC functional enforced from input :
     Exchange-correlation= PBESOL
                           (   1   4  10   8   0   0   0)
     Any further DFT definition will be discarded
     Please, verify this is what you really want


     Parallelization info
     --------------------
     sticks:   dense  smooth     PW     G-vecs:    dense   smooth      PW
     Min          15       6      1                 3631      892     121
     Max          16       7      2                 3664      942     170
     Sum        1945     769    241               467365   117995   19325

     Using Slab Decomposition

 ----2D----2D----2D----2D----2D----2D----2D----2D----2D----2D----2D----2D
  The code is running with the 2D cutoff
  Please refer to:
  Sohier, T., Calandra, M., & Mauri, F. (2017), 
  Density functional perturbation theory for gated two-dimensional heterostructures:
  Theoretical developments and application to flexural phonons in graphene.
  Physical Review B, 96(7), 75448. https://doi.org/10.1103/PhysRevB.96.075448
 ----2D----2D----2D----2D----2D----2D----2D----2D----2D----2D----2D----2D
     read_file_ph: Wavefunctions in collected format not needed

     Saving dvscf to file. Distribute only q points, not irreducible representations.
        6 /   7 q-points for this run, from  2 to  7:
       N       xq(1)         xq(2)         xq(3) 
       1   0.000000000   0.000000000   0.000000000
       2  -0.000000001  -0.192450000   0.000000000
       3  -0.000000003  -0.384900000   0.000000000
       4   0.000000004   0.577350000   0.000000000
       5  -0.166667000  -0.288675000   0.000000000
       6  -0.166667000  -0.481125000   0.000000000
       7  -0.333333000  -0.577350000   0.000000000


     Calculation of q =   -0.0000000  -0.1924500   0.0000000

     Bands found: reading from ./_ph0/

     Reading xml data from directory:

     ./_ph0/MoS2.save/
     Message from routine qexsd_readschema :
     input info not found or not readable in xml file

     IMPORTANT: XC functional enforced from input :
     Exchange-correlation= PBESOL
                           (   1   4  10   8   0   0   0)
     Any further DFT definition will be discarded
     Please, verify this is what you really want


     Parallelization info
     --------------------
     sticks:   dense  smooth     PW     G-vecs:    dense   smooth      PW
     Min          15       6      1                 3631      892     121
     Max          16       7      2                 3664      942     170
     Sum        1945     769    241               467365   117995   19325

     Using Slab Decomposition

 ----2D----2D----2D----2D----2D----2D----2D----2D----2D----2D----2D----2D
  The code is running with the 2D cutoff
  Please refer to:
  Sohier, T., Calandra, M., & Mauri, F. (2017), 
  Density functional perturbation theory for gated two-dimensional heterostructures:
  Theoretical developments and application to flexural phonons in graphene.
  Physical Review B, 96(7), 75448. https://doi.org/10.1103/PhysRevB.96.075448
 ----2D----2D----2D----2D----2D----2D----2D----2D----2D----2D----2D----2D
     read_file_new: Wavefunctions not in collected format?!?
     read_file: Wavefunctions in collected format not available

     Restart in Phonon calculation

     default                                                                    

     bravais-lattice index     =            4
     lattice parameter (alat)  =       5.9413  a.u.
     unit-cell volume          =    1222.6725 (a.u.)^3
     number of atoms/cell      =            3
     number of atomic types    =            2
     kinetic-energy cut-off    =      80.0000  Ry
     charge density cut-off    =     800.0000  Ry
     convergence threshold     =      1.0E-15
     beta                      =       0.3000
     number of iterations used =            4
     Exchange-correlation= PBESOL
                           (   1   4  10   8   0   0   0)


     celldm(1)=    5.94125  celldm(2)=    0.00000  celldm(3)=    6.73201
     celldm(4)=    0.00000  celldm(5)=    0.00000  celldm(6)=    0.00000

     crystal axes: (cart. coord. in units of alat)
               a(1) = (  1.0000  0.0000  0.0000 )  
               a(2) = ( -0.5000  0.8660  0.0000 )  
               a(3) = (  0.0000  0.0000  6.7320 )  

     reciprocal axes: (cart. coord. in units 2 pi/alat)
               b(1) = (  1.0000  0.5774 -0.0000 )  
               b(2) = (  0.0000  1.1547  0.0000 )  
               b(3) = (  0.0000 -0.0000  0.1485 )  


     Atoms inside the unit cell: 

     Cartesian axes

     site n.  atom      mass           positions (alat units)
        1  Mo     95.9500   tau(    1) = (    0.00000    0.57735    3.36601  )
        2  S      32.0650   tau(    2) = (    0.50000    0.28868    3.86143  )
        3  S      32.0650   tau(    3) = (    0.50000    0.28868    2.87059  )

     Computing dynamical matrix for 
                    q = (  -0.0000000  -0.1924500   0.0000000 )

      4 Sym.Ops. (no q -> -q+G )

                                    s                        frac. trans.

      isym =  1     identity                                     

 cryst.   s( 1) = (     1          0          0      )
                  (     0          1          0      )
                  (     0          0          1      )

 cart.    s( 1) = (  1.0000000  0.0000000  0.0000000 )
                  (  0.0000000  1.0000000  0.0000000 )
                  (  0.0000000  0.0000000  1.0000000 )


      isym =  2     inv. 180 deg rotation - cart. axis [0,0,1]   

 cryst.   s( 2) = (     1          0          0      )
                  (     0          1          0      )
                  (     0          0         -1      )

 cart.    s( 2) = (  1.0000000  0.0000000  0.0000000 )
                  (  0.0000000  1.0000000  0.0000000 )
                  (  0.0000000  0.0000000 -1.0000000 )


      isym =  3     180 deg rotation - cart. axis [0,1,0]        

 cryst.   s( 3) = (    -1          0          0      )
                  (     1          1          0      )
                  (     0          0         -1      )

 cart.    s( 3) = ( -1.0000000  0.0000000  0.0000000 )
                  (  0.0000000  1.0000000  0.0000000 )
                  (  0.0000000  0.0000000 -1.0000000 )


      isym =  4     inv. 180 deg rotation - cart. axis [1,0,0]   

 cryst.   s( 4) = (    -1          0          0      )
                  (     1          1          0      )
                  (     0          0          1      )

 cart.    s( 4) = ( -1.0000000  0.0000000  0.0000000 )
                  (  0.0000000  1.0000000  0.0000000 )
                  (  0.0000000  0.0000000  1.0000000 )


     G cutoff =  715.2972  (   3651 G-vectors)     FFT grid: ( 54, 54,375)
     G cutoff =  286.1189  (    918 G-vectors)  smooth grid: ( 36, 36,240)
     number of k points=   342
                       cart. coord. in units 2pi/alat
        k(    1) = (   0.0000000   0.0000000   0.0000000), wk =   0.0061728
        k(    2) = (  -0.0000000  -0.1924500   0.0000000), wk =   0.0000000
        k(    3) = (   0.0000000   0.0641500   0.0000000), wk =   0.0061728
        k(    4) = (  -0.0000000  -0.1283000   0.0000000), wk =   0.0000000
        k(    5) = (   0.0000000   0.1283001   0.0000000), wk =   0.0061728
        k(    6) = (  -0.0000000  -0.0641499   0.0000000), wk =   0.0000000
        k(    7) = (   0.0000000   0.1924501   0.0000000), wk =   0.0061728
        k(    8) = (  -0.0000000   0.0000001   0.0000000), wk =   0.0000000
        k(    9) = (   0.0000000   0.2566001   0.0000000), wk =   0.0061728
        k(   10) = (  -0.0000000   0.0641501   0.0000000), wk =   0.0000000
        k(   11) = (   0.0000000   0.3207501   0.0000000), wk =   0.0061728
        k(   12) = (  -0.0000000   0.1283001   0.0000000), wk =   0.0000000
        k(   13) = (   0.0000000   0.3849002   0.0000000), wk =   0.0061728
        k(   14) = (  -0.0000000   0.1924502   0.0000000), wk =   0.0000000
        k(   15) = (   0.0000000   0.4490502   0.0000000), wk =   0.0061728
        k(   16) = (  -0.0000000   0.2566002   0.0000000), wk =   0.0000000
        k(   17) = (   0.0000000   0.5132002   0.0000000), wk =   0.0061728
        k(   18) = (  -0.0000000   0.3207502   0.0000000), wk =   0.0000000
        k(   19) = (   0.0000000  -0.5773503   0.0000000), wk =   0.0061728
        k(   20) = (  -0.0000000  -0.7698003   0.0000000), wk =   0.0000000
        k(   21) = (   0.0555556   0.0962250   0.0000000), wk =   0.0123457
        k(   22) = (   0.0555556  -0.0962250   0.0000000), wk =   0.0000000
        k(   23) = (   0.0555556   0.1603751   0.0000000), wk =   0.0123457
        k(   24) = (   0.0555556  -0.0320749   0.0000000), wk =   0.0000000
        k(   25) = (   0.0555556   0.2245251   0.0000000), wk =   0.0123457
        k(   26) = (   0.0555556   0.0320751   0.0000000), wk =   0.0000000
        k(   27) = (   0.0555556   0.2886751   0.0000000), wk =   0.0123457
        k(   28) = (   0.0555556   0.0962251   0.0000000), wk =   0.0000000
        k(   29) = (   0.0555556   0.3528252   0.0000000), wk =   0.0123457
        k(   30) = (   0.0555556   0.1603752   0.0000000), wk =   0.0000000
        k(   31) = (   0.0555556   0.4169752   0.0000000), wk =   0.0123457
        k(   32) = (   0.0555556   0.2245252   0.0000000), wk =   0.0000000
        k(   33) = (   0.0555556   0.4811252   0.0000000), wk =   0.0123457
        k(   34) = (   0.0555556   0.2886752   0.0000000), wk =   0.0000000
        k(   35) = (   0.0555556   0.5452753   0.0000000), wk =   0.0123457
        k(   36) = (   0.0555556   0.3528253   0.0000000), wk =   0.0000000
        k(   37) = (   0.1111111   0.1924501   0.0000000), wk =   0.0123457
        k(   38) = (   0.1111111   0.0000001   0.0000000), wk =   0.0000000
        k(   39) = (   0.1111111   0.2566001   0.0000000), wk =   0.0123457
        k(   40) = (   0.1111111   0.0641501   0.0000000), wk =   0.0000000
        k(   41) = (   0.1111111   0.3207501   0.0000000), wk =   0.0123457
        k(   42) = (   0.1111111   0.1283001   0.0000000), wk =   0.0000000
        k(   43) = (   0.1111111   0.3849002   0.0000000), wk =   0.0123457
        k(   44) = (   0.1111111   0.1924502   0.0000000), wk =   0.0000000
        k(   45) = (   0.1111111   0.4490502   0.0000000), wk =   0.0123457
        k(   46) = (   0.1111111   0.2566002   0.0000000), wk =   0.0000000
        k(   47) = (   0.1111111   0.5132002   0.0000000), wk =   0.0123457
        k(   48) = (   0.1111111   0.3207502   0.0000000), wk =   0.0000000
        k(   49) = (   0.1111111   0.5773503   0.0000000), wk =   0.0123457
        k(   50) = (   0.1111111   0.3849003   0.0000000), wk =   0.0000000
        k(   51) = (   0.1666667   0.2886751   0.0000000), wk =   0.0123457
        k(   52) = (   0.1666667   0.0962251   0.0000000), wk =   0.0000000
        k(   53) = (   0.1666667   0.3528252   0.0000000), wk =   0.0123457
        k(   54) = (   0.1666667   0.1603752   0.0000000), wk =   0.0000000
        k(   55) = (   0.1666667   0.4169752   0.0000000), wk =   0.0123457
        k(   56) = (   0.1666667   0.2245252   0.0000000), wk =   0.0000000
        k(   57) = (   0.1666667   0.4811252   0.0000000), wk =   0.0123457
        k(   58) = (   0.1666667   0.2886752   0.0000000), wk =   0.0000000
        k(   59) = (   0.1666667   0.5452753   0.0000000), wk =   0.0123457
        k(   60) = (   0.1666667   0.3528253   0.0000000), wk =   0.0000000
        k(   61) = (   0.2222222   0.3849002   0.0000000), wk =   0.0123457
        k(   62) = (   0.2222222   0.1924502   0.0000000), wk =   0.0000000
        k(   63) = (   0.2222222   0.4490502   0.0000000), wk =   0.0123457
        k(   64) = (   0.2222222   0.2566002   0.0000000), wk =   0.0000000
        k(   65) = (   0.2222222   0.5132002   0.0000000), wk =   0.0123457
        k(   66) = (   0.2222222   0.3207502   0.0000000), wk =   0.0000000
        k(   67) = (   0.2222222   0.5773503   0.0000000), wk =   0.0123457
        k(   68) = (   0.2222222   0.3849003   0.0000000), wk =   0.0000000
        k(   69) = (   0.2777778   0.4811252   0.0000000), wk =   0.0123457
        k(   70) = (   0.2777778   0.2886752   0.0000000), wk =   0.0000000
        k(   71) = (   0.2777778   0.5452753   0.0000000), wk =   0.0123457
        k(   72) = (   0.2777778   0.3528253   0.0000000), wk =   0.0000000
        k(   73) = (   0.3333333   0.5773503   0.0000000), wk =   0.0123457
        k(   74) = (   0.3333333   0.3849003   0.0000000), wk =   0.0000000
        k(   75) = (   0.0555556  -0.0320750   0.0000000), wk =   0.0123457
        k(   76) = (   0.0555556  -0.2245250   0.0000000), wk =   0.0000000
        k(   77) = (   0.0000000  -0.0641500   0.0000000), wk =   0.0061728
        k(   78) = (  -0.0000000  -0.2566000   0.0000000), wk =   0.0000000
        k(   79) = (  -0.0555556   0.0320750   0.0000000), wk =   0.0123457
        k(   80) = (  -0.0555556  -0.1603750   0.0000000), wk =   0.0000000
        k(   81) = (   0.1111111  -0.0641500   0.0000000), wk =   0.0123457
        k(   82) = (   0.1111111  -0.2566000   0.0000000), wk =   0.0000000
        k(   83) = (   0.0000000  -0.1283001   0.0000000), wk =   0.0061728
        k(   84) = (  -0.0000000  -0.3207501   0.0000000), wk =   0.0000000
        k(   85) = (  -0.1111111   0.0641500   0.0000000), wk =   0.0123457
        k(   86) = (  -0.1111111  -0.1283000   0.0000000), wk =   0.0000000
        k(   87) = (   0.1666667  -0.0962250   0.0000000), wk =   0.0123457
        k(   88) = (   0.1666667  -0.2886750   0.0000000), wk =   0.0000000
        k(   89) = (   0.0000000  -0.1924501   0.0000000), wk =   0.0061728
        k(   90) = (  -0.0000000  -0.3849001   0.0000000), wk =   0.0000000
        k(   91) = (  -0.1666667   0.0962250   0.0000000), wk =   0.0123457
        k(   92) = (  -0.1666667  -0.0962250   0.0000000), wk =   0.0000000
        k(   93) = (   0.2222222  -0.1283001   0.0000000), wk =   0.0123457
        k(   94) = (   0.2222222  -0.3207501   0.0000000), wk =   0.0000000
        k(   95) = (   0.0000000  -0.2566001   0.0000000), wk =   0.0061728
        k(   96) = (  -0.0000000  -0.4490501   0.0000000), wk =   0.0000000
        k(   97) = (  -0.2222222   0.1283001   0.0000000), wk =   0.0123457
        k(   98) = (  -0.2222222  -0.0641499   0.0000000), wk =   0.0000000
        k(   99) = (   0.2777778  -0.1603751   0.0000000), wk =   0.0123457
        k(  100) = (   0.2777778  -0.3528251   0.0000000), wk =   0.0000000
        k(  101) = (   0.0000000  -0.3207501   0.0000000), wk =   0.0061728
        k(  102) = (  -0.0000000  -0.5132001   0.0000000), wk =   0.0000000
        k(  103) = (  -0.2777778   0.1603751   0.0000000), wk =   0.0123457
        k(  104) = (  -0.2777778  -0.0320749   0.0000000), wk =   0.0000000
        k(  105) = (   0.3333333  -0.1924501   0.0000000), wk =   0.0123457
        k(  106) = (   0.3333333  -0.3849001   0.0000000), wk =   0.0000000
        k(  107) = (   0.0000000  -0.3849002   0.0000000), wk =   0.0061728
        k(  108) = (  -0.0000000  -0.5773502   0.0000000), wk =   0.0000000
        k(  109) = (  -0.3333333   0.1924501   0.0000000), wk =   0.0123457
        k(  110) = (  -0.3333333   0.0000001   0.0000000), wk =   0.0000000
        k(  111) = (   0.3888889  -0.2245251   0.0000000), wk =   0.0123457
        k(  112) = (   0.3888889  -0.4169751   0.0000000), wk =   0.0000000
        k(  113) = (   0.0000000  -0.4490502   0.0000000), wk =   0.0061728
        k(  114) = (  -0.0000000  -0.6415002   0.0000000), wk =   0.0000000
        k(  115) = (  -0.3888889   0.2245251   0.0000000), wk =   0.0123457
        k(  116) = (  -0.3888889   0.0320751   0.0000000), wk =   0.0000000
        k(  117) = (   0.4444444  -0.2566001   0.0000000), wk =   0.0123457
        k(  118) = (   0.4444444  -0.4490501   0.0000000), wk =   0.0000000
        k(  119) = (   0.0000000  -0.5132002   0.0000000), wk =   0.0061728
        k(  120) = (  -0.0000000  -0.7056502   0.0000000), wk =   0.0000000
        k(  121) = (  -0.4444444   0.2566001   0.0000000), wk =   0.0123457
        k(  122) = (  -0.4444444   0.0641501   0.0000000), wk =   0.0000000
        k(  123) = (  -0.5000000   0.2886751   0.0000000), wk =   0.0123457
        k(  124) = (  -0.5000000   0.0962251   0.0000000), wk =   0.0000000
        k(  125) = (   0.0555556  -0.0962250   0.0000000), wk =   0.0123457
        k(  126) = (   0.0555556  -0.2886750   0.0000000), wk =   0.0000000
        k(  127) = (  -0.1111111   0.0000000   0.0000000), wk =   0.0123457
        k(  128) = (  -0.1111111  -0.1924500   0.0000000), wk =   0.0000000
        k(  129) = (   0.1111111  -0.1283001   0.0000000), wk =   0.0123457
        k(  130) = (   0.1111111  -0.3207501   0.0000000), wk =   0.0000000
        k(  131) = (  -0.1666667  -0.0320750   0.0000000), wk =   0.0123457
        k(  132) = (  -0.1666667  -0.2245250   0.0000000), wk =   0.0000000
        k(  133) = (  -0.0555556  -0.1603751   0.0000000), wk =   0.0123457
        k(  134) = (  -0.0555556  -0.3528251   0.0000000), wk =   0.0000000
        k(  135) = (  -0.1111111   0.1283001   0.0000000), wk =   0.0123457
        k(  136) = (  -0.1111111  -0.0641499   0.0000000), wk =   0.0000000
        k(  137) = (   0.1666667   0.0320750   0.0000000), wk =   0.0123457
        k(  138) = (   0.1666667  -0.1603750   0.0000000), wk =   0.0000000
        k(  139) = (   0.1666667  -0.1603751   0.0000000), wk =   0.0123457
        k(  140) = (   0.1666667  -0.3528251   0.0000000), wk =   0.0000000
        k(  141) = (  -0.2222222  -0.0641500   0.0000000), wk =   0.0123457
        k(  142) = (  -0.2222222  -0.2566000   0.0000000), wk =   0.0000000
        k(  143) = (  -0.0555556  -0.2245251   0.0000000), wk =   0.0123457
        k(  144) = (  -0.0555556  -0.4169751   0.0000000), wk =   0.0000000
        k(  145) = (  -0.1666667   0.1603751   0.0000000), wk =   0.0123457
        k(  146) = (  -0.1666667  -0.0320749   0.0000000), wk =   0.0000000
        k(  147) = (   0.2222222   0.0641500   0.0000000), wk =   0.0123457
        k(  148) = (   0.2222222  -0.1283000   0.0000000), wk =   0.0000000
        k(  149) = (   0.2222222  -0.1924501   0.0000000), wk =   0.0123457
        k(  150) = (   0.2222222  -0.3849001   0.0000000), wk =   0.0000000
        k(  151) = (  -0.2777778  -0.0962250   0.0000000), wk =   0.0123457
        k(  152) = (  -0.2777778  -0.2886750   0.0000000), wk =   0.0000000
        k(  153) = (  -0.0555556  -0.2886751   0.0000000), wk =   0.0123457
        k(  154) = (  -0.0555556  -0.4811251   0.0000000), wk =   0.0000000
        k(  155) = (  -0.2222222   0.1924501   0.0000000), wk =   0.0123457
        k(  156) = (  -0.2222222   0.0000001   0.0000000), wk =   0.0000000
        k(  157) = (   0.2777778   0.0962250   0.0000000), wk =   0.0123457
        k(  158) = (   0.2777778  -0.0962250   0.0000000), wk =   0.0000000
        k(  159) = (   0.2777778  -0.2245251   0.0000000), wk =   0.0123457
        k(  160) = (   0.2777778  -0.4169751   0.0000000), wk =   0.0000000
        k(  161) = (  -0.3333333  -0.1283001   0.0000000), wk =   0.0123457
        k(  162) = (  -0.3333333  -0.3207501   0.0000000), wk =   0.0000000
        k(  163) = (  -0.0555556  -0.3528252   0.0000000), wk =   0.0123457
        k(  164) = (  -0.0555556  -0.5452752   0.0000000), wk =   0.0000000
        k(  165) = (  -0.2777778   0.2245251   0.0000000), wk =   0.0123457
        k(  166) = (  -0.2777778   0.0320751   0.0000000), wk =   0.0000000
        k(  167) = (   0.3333333   0.1283001   0.0000000), wk =   0.0123457
        k(  168) = (   0.3333333  -0.0641499   0.0000000), wk =   0.0000000
        k(  169) = (   0.3333333  -0.2566001   0.0000000), wk =   0.0123457
        k(  170) = (   0.3333333  -0.4490501   0.0000000), wk =   0.0000000
        k(  171) = (  -0.3888889  -0.1603751   0.0000000), wk =   0.0123457
        k(  172) = (  -0.3888889  -0.3528251   0.0000000), wk =   0.0000000
        k(  173) = (  -0.0555556  -0.4169752   0.0000000), wk =   0.0123457
        k(  174) = (  -0.0555556  -0.6094252   0.0000000), wk =   0.0000000
        k(  175) = (  -0.3333333   0.2566001   0.0000000), wk =   0.0123457
        k(  176) = (  -0.3333333   0.0641501   0.0000000), wk =   0.0000000
        k(  177) = (   0.3888889   0.1603751   0.0000000), wk =   0.0123457
        k(  178) = (   0.3888889  -0.0320749   0.0000000), wk =   0.0000000
        k(  179) = (   0.3888889  -0.2886751   0.0000000), wk =   0.0123457
        k(  180) = (   0.3888889  -0.4811251   0.0000000), wk =   0.0000000
        k(  181) = (  -0.4444444  -0.1924501   0.0000000), wk =   0.0123457
        k(  182) = (  -0.4444444  -0.3849001   0.0000000), wk =   0.0000000
        k(  183) = (  -0.0555556  -0.4811252   0.0000000), wk =   0.0123457
        k(  184) = (  -0.0555556  -0.6735752   0.0000000), wk =   0.0000000
        k(  185) = (  -0.3888889   0.2886751   0.0000000), wk =   0.0123457
        k(  186) = (  -0.3888889   0.0962251   0.0000000), wk =   0.0000000
        k(  187) = (   0.4444444   0.1924501   0.0000000), wk =   0.0123457
        k(  188) = (   0.4444444   0.0000001   0.0000000), wk =   0.0000000
        k(  189) = (   0.4444444  -0.3207501   0.0000000), wk =   0.0123457
        k(  190) = (   0.4444444  -0.5132001   0.0000000), wk =   0.0000000
        k(  191) = (  -0.5000000  -0.2245251   0.0000000), wk =   0.0123457
        k(  192) = (  -0.5000000  -0.4169751   0.0000000), wk =   0.0000000
        k(  193) = (  -0.0555556  -0.5452753   0.0000000), wk =   0.0123457
        k(  194) = (  -0.0555556  -0.7377253   0.0000000), wk =   0.0000000
        k(  195) = (  -0.4444444   0.3207501   0.0000000), wk =   0.0123457
        k(  196) = (  -0.4444444   0.1283001   0.0000000), wk =   0.0000000
        k(  197) = (   0.5000000   0.2245251   0.0000000), wk =   0.0123457
        k(  198) = (   0.5000000   0.0320751   0.0000000), wk =   0.0000000
        k(  199) = (   0.1111111  -0.1924501   0.0000000), wk =   0.0123457
        k(  200) = (   0.1111111  -0.3849001   0.0000000), wk =   0.0000000
        k(  201) = (  -0.2222222   0.0000000   0.0000000), wk =   0.0123457
        k(  202) = (  -0.2222222  -0.1924500   0.0000000), wk =   0.0000000
        k(  203) = (   0.1666667  -0.2245251   0.0000000), wk =   0.0123457
        k(  204) = (   0.1666667  -0.4169751   0.0000000), wk =   0.0000000
        k(  205) = (  -0.2777778  -0.0320750   0.0000000), wk =   0.0123457
        k(  206) = (  -0.2777778  -0.2245250   0.0000000), wk =   0.0000000
        k(  207) = (  -0.1111111  -0.2566001   0.0000000), wk =   0.0123457
        k(  208) = (  -0.1111111  -0.4490501   0.0000000), wk =   0.0000000
        k(  209) = (  -0.1666667   0.2245251   0.0000000), wk =   0.0123457
        k(  210) = (  -0.1666667   0.0320751   0.0000000), wk =   0.0000000
        k(  211) = (   0.2777778   0.0320750   0.0000000), wk =   0.0123457
        k(  212) = (   0.2777778  -0.1603750   0.0000000), wk =   0.0000000
        k(  213) = (   0.2222222  -0.2566001   0.0000000), wk =   0.0123457
        k(  214) = (   0.2222222  -0.4490501   0.0000000), wk =   0.0000000
        k(  215) = (  -0.3333333  -0.0641500   0.0000000), wk =   0.0123457
        k(  216) = (  -0.3333333  -0.2566000   0.0000000), wk =   0.0000000
        k(  217) = (  -0.1111111  -0.3207501   0.0000000), wk =   0.0123457
        k(  218) = (  -0.1111111  -0.5132001   0.0000000), wk =   0.0000000
        k(  219) = (  -0.2222222   0.2566001   0.0000000), wk =   0.0123457
        k(  220) = (  -0.2222222   0.0641501   0.0000000), wk =   0.0000000
        k(  221) = (   0.3333333   0.0641500   0.0000000), wk =   0.0123457
        k(  222) = (   0.3333333  -0.1283000   0.0000000), wk =   0.0000000
        k(  223) = (   0.2777778  -0.2886751   0.0000000), wk =   0.0123457
        k(  224) = (   0.2777778  -0.4811251   0.0000000), wk =   0.0000000
        k(  225) = (  -0.3888889  -0.0962250   0.0000000), wk =   0.0123457
        k(  226) = (  -0.3888889  -0.2886750   0.0000000), wk =   0.0000000
        k(  227) = (  -0.1111111  -0.3849002   0.0000000), wk =   0.0123457
        k(  228) = (  -0.1111111  -0.5773502   0.0000000), wk =   0.0000000
        k(  229) = (  -0.2777778   0.2886751   0.0000000), wk =   0.0123457
        k(  230) = (  -0.2777778   0.0962251   0.0000000), wk =   0.0000000
        k(  231) = (   0.3888889   0.0962250   0.0000000), wk =   0.0123457
        k(  232) = (   0.3888889  -0.0962250   0.0000000), wk =   0.0000000
        k(  233) = (   0.3333333  -0.3207501   0.0000000), wk =   0.0123457
        k(  234) = (   0.3333333  -0.5132001   0.0000000), wk =   0.0000000
        k(  235) = (  -0.4444444  -0.1283001   0.0000000), wk =   0.0123457
        k(  236) = (  -0.4444444  -0.3207501   0.0000000), wk =   0.0000000
        k(  237) = (  -0.1111111  -0.4490502   0.0000000), wk =   0.0123457
        k(  238) = (  -0.1111111  -0.6415002   0.0000000), wk =   0.0000000
        k(  239) = (  -0.3333333   0.3207501   0.0000000), wk =   0.0123457
        k(  240) = (  -0.3333333   0.1283001   0.0000000), wk =   0.0000000
        k(  241) = (   0.4444444   0.1283001   0.0000000), wk =   0.0123457
        k(  242) = (   0.4444444  -0.0641499   0.0000000), wk =   0.0000000
        k(  243) = (   0.3888889  -0.3528252   0.0000000), wk =   0.0123457
        k(  244) = (   0.3888889  -0.5452752   0.0000000), wk =   0.0000000
        k(  245) = (  -0.5000000  -0.1603751   0.0000000), wk =   0.0123457
        k(  246) = (  -0.5000000  -0.3528251   0.0000000), wk =   0.0000000
        k(  247) = (  -0.1111111  -0.5132002   0.0000000), wk =   0.0123457
        k(  248) = (  -0.1111111  -0.7056502   0.0000000), wk =   0.0000000
        k(  249) = (  -0.3888889   0.3528252   0.0000000), wk =   0.0123457
        k(  250) = (  -0.3888889   0.1603752   0.0000000), wk =   0.0000000
        k(  251) = (   0.5000000   0.1603751   0.0000000), wk =   0.0123457
        k(  252) = (   0.5000000  -0.0320749   0.0000000), wk =   0.0000000
        k(  253) = (   0.4444444  -0.3849002   0.0000000), wk =   0.0123457
        k(  254) = (   0.4444444  -0.5773502   0.0000000), wk =   0.0000000
        k(  255) = (  -0.5555556  -0.1924501   0.0000000), wk =   0.0123457
        k(  256) = (  -0.5555556  -0.3849001   0.0000000), wk =   0.0000000
        k(  257) = (   0.1666667  -0.2886751   0.0000000), wk =   0.0123457
        k(  258) = (   0.1666667  -0.4811251   0.0000000), wk =   0.0000000
        k(  259) = (  -0.3333333  -0.0000000   0.0000000), wk =   0.0123457
        k(  260) = (  -0.3333333  -0.1924500   0.0000000), wk =   0.0000000
        k(  261) = (   0.2222222  -0.3207501   0.0000000), wk =   0.0123457
        k(  262) = (   0.2222222  -0.5132001   0.0000000), wk =   0.0000000
        k(  263) = (  -0.3888889  -0.0320750   0.0000000), wk =   0.0123457
        k(  264) = (  -0.3888889  -0.2245250   0.0000000), wk =   0.0000000
        k(  265) = (  -0.1666667  -0.3528252   0.0000000), wk =   0.0123457
        k(  266) = (  -0.1666667  -0.5452752   0.0000000), wk =   0.0000000
        k(  267) = (  -0.2222222   0.3207501   0.0000000), wk =   0.0123457
        k(  268) = (  -0.2222222   0.1283001   0.0000000), wk =   0.0000000
        k(  269) = (   0.3888889   0.0320750   0.0000000), wk =   0.0123457
        k(  270) = (   0.3888889  -0.1603750   0.0000000), wk =   0.0000000
        k(  271) = (   0.2777778  -0.3528252   0.0000000), wk =   0.0123457
        k(  272) = (   0.2777778  -0.5452752   0.0000000), wk =   0.0000000
        k(  273) = (  -0.4444444  -0.0641500   0.0000000), wk =   0.0123457
        k(  274) = (  -0.4444444  -0.2566000   0.0000000), wk =   0.0000000
        k(  275) = (  -0.1666667  -0.4169752   0.0000000), wk =   0.0123457
        k(  276) = (  -0.1666667  -0.6094252   0.0000000), wk =   0.0000000
        k(  277) = (  -0.2777778   0.3528252   0.0000000), wk =   0.0123457
        k(  278) = (  -0.2777778   0.1603752   0.0000000), wk =   0.0000000
        k(  279) = (   0.4444444   0.0641500   0.0000000), wk =   0.0123457
        k(  280) = (   0.4444444  -0.1283000   0.0000000), wk =   0.0000000
        k(  281) = (   0.3333333  -0.3849002   0.0000000), wk =   0.0123457
        k(  282) = (   0.3333333  -0.5773502   0.0000000), wk =   0.0000000
        k(  283) = (  -0.5000000  -0.0962250   0.0000000), wk =   0.0123457
        k(  284) = (  -0.5000000  -0.2886750   0.0000000), wk =   0.0000000
        k(  285) = (  -0.1666667  -0.4811252   0.0000000), wk =   0.0123457
        k(  286) = (  -0.1666667  -0.6735752   0.0000000), wk =   0.0000000
        k(  287) = (  -0.3333333   0.3849002   0.0000000), wk =   0.0123457
        k(  288) = (  -0.3333333   0.1924502   0.0000000), wk =   0.0000000
        k(  289) = (   0.5000000   0.0962250   0.0000000), wk =   0.0123457
        k(  290) = (   0.5000000  -0.0962250   0.0000000), wk =   0.0000000
        k(  291) = (   0.3888889  -0.4169752   0.0000000), wk =   0.0123457
        k(  292) = (   0.3888889  -0.6094252   0.0000000), wk =   0.0000000
        k(  293) = (  -0.5555556  -0.1283001   0.0000000), wk =   0.0123457
        k(  294) = (  -0.5555556  -0.3207501   0.0000000), wk =   0.0000000
        k(  295) = (  -0.1666667  -0.5452753   0.0000000), wk =   0.0123457
        k(  296) = (  -0.1666667  -0.7377253   0.0000000), wk =   0.0000000
        k(  297) = (  -0.3888889   0.4169752   0.0000000), wk =   0.0123457
        k(  298) = (  -0.3888889   0.2245252   0.0000000), wk =   0.0000000
        k(  299) = (   0.5555556   0.1283001   0.0000000), wk =   0.0123457
        k(  300) = (   0.5555556  -0.0641499   0.0000000), wk =   0.0000000
        k(  301) = (   0.2222222  -0.3849002   0.0000000), wk =   0.0123457
        k(  302) = (   0.2222222  -0.5773502   0.0000000), wk =   0.0000000
        k(  303) = (  -0.4444444   0.0000000   0.0000000), wk =   0.0123457
        k(  304) = (  -0.4444444  -0.1924500   0.0000000), wk =   0.0000000
        k(  305) = (   0.2777778  -0.4169752   0.0000000), wk =   0.0123457
        k(  306) = (   0.2777778  -0.6094252   0.0000000), wk =   0.0000000
        k(  307) = (  -0.5000000  -0.0320750   0.0000000), wk =   0.0123457
        k(  308) = (  -0.5000000  -0.2245250   0.0000000), wk =   0.0000000
        k(  309) = (  -0.2222222  -0.4490502   0.0000000), wk =   0.0123457
        k(  310) = (  -0.2222222  -0.6415002   0.0000000), wk =   0.0000000
        k(  311) = (  -0.2777778   0.4169752   0.0000000), wk =   0.0123457
        k(  312) = (  -0.2777778   0.2245252   0.0000000), wk =   0.0000000
        k(  313) = (   0.5000000   0.0320750   0.0000000), wk =   0.0123457
        k(  314) = (   0.5000000  -0.1603750   0.0000000), wk =   0.0000000
        k(  315) = (   0.3333333  -0.4490502   0.0000000), wk =   0.0123457
        k(  316) = (   0.3333333  -0.6415002   0.0000000), wk =   0.0000000
        k(  317) = (  -0.5555556  -0.0641500   0.0000000), wk =   0.0123457
        k(  318) = (  -0.5555556  -0.2566000   0.0000000), wk =   0.0000000
        k(  319) = (  -0.2222222  -0.5132002   0.0000000), wk =   0.0123457
        k(  320) = (  -0.2222222  -0.7056502   0.0000000), wk =   0.0000000
        k(  321) = (  -0.3333333   0.4490502   0.0000000), wk =   0.0123457
        k(  322) = (  -0.3333333   0.2566002   0.0000000), wk =   0.0000000
        k(  323) = (   0.5555556   0.0641500   0.0000000), wk =   0.0123457
        k(  324) = (   0.5555556  -0.1283000   0.0000000), wk =   0.0000000
        k(  325) = (   0.3888889  -0.4811252   0.0000000), wk =   0.0123457
        k(  326) = (   0.3888889  -0.6735752   0.0000000), wk =   0.0000000
        k(  327) = (  -0.6111111  -0.0962250   0.0000000), wk =   0.0123457
        k(  328) = (  -0.6111111  -0.2886750   0.0000000), wk =   0.0000000
        k(  329) = (   0.2777778  -0.4811252   0.0000000), wk =   0.0123457
        k(  330) = (   0.2777778  -0.6735752   0.0000000), wk =   0.0000000
        k(  331) = (  -0.5555556  -0.0000000   0.0000000), wk =   0.0123457
        k(  332) = (  -0.5555556  -0.1924500   0.0000000), wk =   0.0000000
        k(  333) = (   0.3333333  -0.5132002   0.0000000), wk =   0.0123457
        k(  334) = (   0.3333333  -0.7056502   0.0000000), wk =   0.0000000
        k(  335) = (  -0.6111111  -0.0320750   0.0000000), wk =   0.0123457
        k(  336) = (  -0.6111111  -0.2245250   0.0000000), wk =   0.0000000
        k(  337) = (  -0.2777778  -0.5452753   0.0000000), wk =   0.0123457
        k(  338) = (  -0.2777778  -0.7377253   0.0000000), wk =   0.0000000
        k(  339) = (  -0.3333333   0.5132002   0.0000000), wk =   0.0123457
        k(  340) = (  -0.3333333   0.3207502   0.0000000), wk =   0.0000000
        k(  341) = (   0.6111111   0.0320750   0.0000000), wk =   0.0123457
        k(  342) = (   0.6111111  -0.1603750   0.0000000), wk =   0.0000000

                       cryst. coord.
        k(    1) = (   0.0000000   0.0000000   0.0000000), wk =   0.0061728
        k(    2) = (  -0.0000000  -0.1666666   0.0000000), wk =   0.0000000
        k(    3) = (   0.0000000   0.0555556   0.0000000), wk =   0.0061728
        k(    4) = (  -0.0000000  -0.1111110   0.0000000), wk =   0.0000000
        k(    5) = (   0.0000000   0.1111111   0.0000000), wk =   0.0061728
        k(    6) = (  -0.0000000  -0.0555555   0.0000000), wk =   0.0000000
        k(    7) = (   0.0000000   0.1666667   0.0000000), wk =   0.0061728
        k(    8) = (  -0.0000000   0.0000001   0.0000000), wk =   0.0000000
        k(    9) = (   0.0000000   0.2222222   0.0000000), wk =   0.0061728
        k(   10) = (  -0.0000000   0.0555556   0.0000000), wk =   0.0000000
        k(   11) = (   0.0000000   0.2777778   0.0000000), wk =   0.0061728
        k(   12) = (  -0.0000000   0.1111112   0.0000000), wk =   0.0000000
        k(   13) = (   0.0000000   0.3333333   0.0000000), wk =   0.0061728
        k(   14) = (  -0.0000000   0.1666667   0.0000000), wk =   0.0000000
        k(   15) = (   0.0000000   0.3888889   0.0000000), wk =   0.0061728
        k(   16) = (  -0.0000000   0.2222223   0.0000000), wk =   0.0000000
        k(   17) = (   0.0000000   0.4444444   0.0000000), wk =   0.0061728
        k(   18) = (  -0.0000000   0.2777779   0.0000000), wk =   0.0000000
        k(   19) = (   0.0000000  -0.5000000   0.0000000), wk =   0.0061728
        k(   20) = (  -0.0000000  -0.6666666   0.0000000), wk =   0.0000000
        k(   21) = (   0.0555556   0.0555556   0.0000000), wk =   0.0123457
        k(   22) = (   0.0555556  -0.1111110   0.0000000), wk =   0.0000000
        k(   23) = (   0.0555556   0.1111111   0.0000000), wk =   0.0123457
        k(   24) = (   0.0555556  -0.0555555   0.0000000), wk =   0.0000000
        k(   25) = (   0.0555556   0.1666667   0.0000000), wk =   0.0123457
        k(   26) = (   0.0555556   0.0000001   0.0000000), wk =   0.0000000
        k(   27) = (   0.0555556   0.2222222   0.0000000), wk =   0.0123457
        k(   28) = (   0.0555556   0.0555556   0.0000000), wk =   0.0000000
        k(   29) = (   0.0555556   0.2777778   0.0000000), wk =   0.0123457
        k(   30) = (   0.0555556   0.1111112   0.0000000), wk =   0.0000000
        k(   31) = (   0.0555556   0.3333333   0.0000000), wk =   0.0123457
        k(   32) = (   0.0555556   0.1666667   0.0000000), wk =   0.0000000
        k(   33) = (   0.0555556   0.3888889   0.0000000), wk =   0.0123457
        k(   34) = (   0.0555556   0.2222223   0.0000000), wk =   0.0000000
        k(   35) = (   0.0555556   0.4444444   0.0000000), wk =   0.0123457
        k(   36) = (   0.0555556   0.2777779   0.0000000), wk =   0.0000000
        k(   37) = (   0.1111111   0.1111111   0.0000000), wk =   0.0123457
        k(   38) = (   0.1111111  -0.0555555   0.0000000), wk =   0.0000000
        k(   39) = (   0.1111111   0.1666667   0.0000000), wk =   0.0123457
        k(   40) = (   0.1111111   0.0000001   0.0000000), wk =   0.0000000
        k(   41) = (   0.1111111   0.2222222   0.0000000), wk =   0.0123457
        k(   42) = (   0.1111111   0.0555556   0.0000000), wk =   0.0000000
        k(   43) = (   0.1111111   0.2777778   0.0000000), wk =   0.0123457
        k(   44) = (   0.1111111   0.1111112   0.0000000), wk =   0.0000000
        k(   45) = (   0.1111111   0.3333333   0.0000000), wk =   0.0123457
        k(   46) = (   0.1111111   0.1666667   0.0000000), wk =   0.0000000
        k(   47) = (   0.1111111   0.3888889   0.0000000), wk =   0.0123457
        k(   48) = (   0.1111111   0.2222223   0.0000000), wk =   0.0000000
        k(   49) = (   0.1111111   0.4444444   0.0000000), wk =   0.0123457
        k(   50) = (   0.1111111   0.2777779   0.0000000), wk =   0.0000000
        k(   51) = (   0.1666667   0.1666667   0.0000000), wk =   0.0123457
        k(   52) = (   0.1666667   0.0000001   0.0000000), wk =   0.0000000
        k(   53) = (   0.1666667   0.2222222   0.0000000), wk =   0.0123457
        k(   54) = (   0.1666667   0.0555556   0.0000000), wk =   0.0000000
        k(   55) = (   0.1666667   0.2777778   0.0000000), wk =   0.0123457
        k(   56) = (   0.1666667   0.1111112   0.0000000), wk =   0.0000000
        k(   57) = (   0.1666667   0.3333333   0.0000000), wk =   0.0123457
        k(   58) = (   0.1666667   0.1666667   0.0000000), wk =   0.0000000
        k(   59) = (   0.1666667   0.3888889   0.0000000), wk =   0.0123457
        k(   60) = (   0.1666667   0.2222223   0.0000000), wk =   0.0000000
        k(   61) = (   0.2222222   0.2222222   0.0000000), wk =   0.0123457
        k(   62) = (   0.2222222   0.0555556   0.0000000), wk =   0.0000000
        k(   63) = (   0.2222222   0.2777778   0.0000000), wk =   0.0123457
        k(   64) = (   0.2222222   0.1111112   0.0000000), wk =   0.0000000
        k(   65) = (   0.2222222   0.3333333   0.0000000), wk =   0.0123457
        k(   66) = (   0.2222222   0.1666667   0.0000000), wk =   0.0000000
        k(   67) = (   0.2222222   0.3888889   0.0000000), wk =   0.0123457
        k(   68) = (   0.2222222   0.2222223   0.0000000), wk =   0.0000000
        k(   69) = (   0.2777778   0.2777778   0.0000000), wk =   0.0123457
        k(   70) = (   0.2777778   0.1111112   0.0000000), wk =   0.0000000
        k(   71) = (   0.2777778   0.3333333   0.0000000), wk =   0.0123457
        k(   72) = (   0.2777778   0.1666667   0.0000000), wk =   0.0000000
        k(   73) = (   0.3333333   0.3333333   0.0000000), wk =   0.0123457
        k(   74) = (   0.3333333   0.1666667   0.0000000), wk =   0.0000000
        k(   75) = (   0.0555556  -0.0555556   0.0000000), wk =   0.0123457
        k(   76) = (   0.0555556  -0.2222221   0.0000000), wk =   0.0000000
        k(   77) = (   0.0000000  -0.0555556   0.0000000), wk =   0.0061728
        k(   78) = (  -0.0000000  -0.2222221   0.0000000), wk =   0.0000000
        k(   79) = (  -0.0555556   0.0555556   0.0000000), wk =   0.0123457
        k(   80) = (  -0.0555556  -0.1111110   0.0000000), wk =   0.0000000
        k(   81) = (   0.1111111  -0.1111111   0.0000000), wk =   0.0123457
        k(   82) = (   0.1111111  -0.2777777   0.0000000), wk =   0.0000000
        k(   83) = (   0.0000000  -0.1111111   0.0000000), wk =   0.0061728
        k(   84) = (  -0.0000000  -0.2777777   0.0000000), wk =   0.0000000
        k(   85) = (  -0.1111111   0.1111111   0.0000000), wk =   0.0123457
        k(   86) = (  -0.1111111  -0.0555555   0.0000000), wk =   0.0000000
        k(   87) = (   0.1666667  -0.1666667   0.0000000), wk =   0.0123457
        k(   88) = (   0.1666667  -0.3333333   0.0000000), wk =   0.0000000
        k(   89) = (   0.0000000  -0.1666667   0.0000000), wk =   0.0061728
        k(   90) = (  -0.0000000  -0.3333333   0.0000000), wk =   0.0000000
        k(   91) = (  -0.1666667   0.1666667   0.0000000), wk =   0.0123457
        k(   92) = (  -0.1666667   0.0000001   0.0000000), wk =   0.0000000
        k(   93) = (   0.2222222  -0.2222222   0.0000000), wk =   0.0123457
        k(   94) = (   0.2222222  -0.3888888   0.0000000), wk =   0.0000000
        k(   95) = (   0.0000000  -0.2222222   0.0000000), wk =   0.0061728
        k(   96) = (  -0.0000000  -0.3888888   0.0000000), wk =   0.0000000
        k(   97) = (  -0.2222222   0.2222222   0.0000000), wk =   0.0123457
        k(   98) = (  -0.2222222   0.0555556   0.0000000), wk =   0.0000000
        k(   99) = (   0.2777778  -0.2777778   0.0000000), wk =   0.0123457
        k(  100) = (   0.2777778  -0.4444444   0.0000000), wk =   0.0000000
        k(  101) = (   0.0000000  -0.2777778   0.0000000), wk =   0.0061728
        k(  102) = (  -0.0000000  -0.4444444   0.0000000), wk =   0.0000000
        k(  103) = (  -0.2777778   0.2777778   0.0000000), wk =   0.0123457
        k(  104) = (  -0.2777778   0.1111112   0.0000000), wk =   0.0000000
        k(  105) = (   0.3333333  -0.3333333   0.0000000), wk =   0.0123457
        k(  106) = (   0.3333333  -0.4999999   0.0000000), wk =   0.0000000
        k(  107) = (   0.0000000  -0.3333333   0.0000000), wk =   0.0061728
        k(  108) = (  -0.0000000  -0.4999999   0.0000000), wk =   0.0000000
        k(  109) = (  -0.3333333   0.3333333   0.0000000), wk =   0.0123457
        k(  110) = (  -0.3333333   0.1666667   0.0000000), wk =   0.0000000
        k(  111) = (   0.3888889  -0.3888889   0.0000000), wk =   0.0123457
        k(  112) = (   0.3888889  -0.5555555   0.0000000), wk =   0.0000000
        k(  113) = (   0.0000000  -0.3888889   0.0000000), wk =   0.0061728
        k(  114) = (  -0.0000000  -0.5555555   0.0000000), wk =   0.0000000
        k(  115) = (  -0.3888889   0.3888889   0.0000000), wk =   0.0123457
        k(  116) = (  -0.3888889   0.2222223   0.0000000), wk =   0.0000000
        k(  117) = (   0.4444444  -0.4444444   0.0000000), wk =   0.0123457
        k(  118) = (   0.4444444  -0.6111110   0.0000000), wk =   0.0000000
        k(  119) = (   0.0000000  -0.4444444   0.0000000), wk =   0.0061728
        k(  120) = (  -0.0000000  -0.6111110   0.0000000), wk =   0.0000000
        k(  121) = (  -0.4444444   0.4444444   0.0000000), wk =   0.0123457
        k(  122) = (  -0.4444444   0.2777779   0.0000000), wk =   0.0000000
        k(  123) = (  -0.5000000   0.5000000   0.0000000), wk =   0.0123457
        k(  124) = (  -0.5000000   0.3333334   0.0000000), wk =   0.0000000
        k(  125) = (   0.0555556  -0.1111111   0.0000000), wk =   0.0123457
        k(  126) = (   0.0555556  -0.2777777   0.0000000), wk =   0.0000000
        k(  127) = (  -0.1111111   0.0555556   0.0000000), wk =   0.0123457
        k(  128) = (  -0.1111111  -0.1111110   0.0000000), wk =   0.0000000
        k(  129) = (   0.1111111  -0.1666667   0.0000000), wk =   0.0123457
        k(  130) = (   0.1111111  -0.3333333   0.0000000), wk =   0.0000000
        k(  131) = (  -0.1666667   0.0555556   0.0000000), wk =   0.0123457
        k(  132) = (  -0.1666667  -0.1111110   0.0000000), wk =   0.0000000
        k(  133) = (  -0.0555556  -0.1111111   0.0000000), wk =   0.0123457
        k(  134) = (  -0.0555556  -0.2777777   0.0000000), wk =   0.0000000
        k(  135) = (  -0.1111111   0.1666667   0.0000000), wk =   0.0123457
        k(  136) = (  -0.1111111   0.0000001   0.0000000), wk =   0.0000000
        k(  137) = (   0.1666667  -0.0555556   0.0000000), wk =   0.0123457
        k(  138) = (   0.1666667  -0.2222221   0.0000000), wk =   0.0000000
        k(  139) = (   0.1666667  -0.2222222   0.0000000), wk =   0.0123457
        k(  140) = (   0.1666667  -0.3888888   0.0000000), wk =   0.0000000
        k(  141) = (  -0.2222222   0.0555556   0.0000000), wk =   0.0123457
        k(  142) = (  -0.2222222  -0.1111110   0.0000000), wk =   0.0000000
        k(  143) = (  -0.0555556  -0.1666667   0.0000000), wk =   0.0123457
        k(  144) = (  -0.0555556  -0.3333333   0.0000000), wk =   0.0000000
        k(  145) = (  -0.1666667   0.2222222   0.0000000), wk =   0.0123457
        k(  146) = (  -0.1666667   0.0555556   0.0000000), wk =   0.0000000
        k(  147) = (   0.2222222  -0.0555556   0.0000000), wk =   0.0123457
        k(  148) = (   0.2222222  -0.2222221   0.0000000), wk =   0.0000000
        k(  149) = (   0.2222222  -0.2777778   0.0000000), wk =   0.0123457
        k(  150) = (   0.2222222  -0.4444444   0.0000000), wk =   0.0000000
        k(  151) = (  -0.2777778   0.0555556   0.0000000), wk =   0.0123457
        k(  152) = (  -0.2777778  -0.1111110   0.0000000), wk =   0.0000000
        k(  153) = (  -0.0555556  -0.2222222   0.0000000), wk =   0.0123457
        k(  154) = (  -0.0555556  -0.3888888   0.0000000), wk =   0.0000000
        k(  155) = (  -0.2222222   0.2777778   0.0000000), wk =   0.0123457
        k(  156) = (  -0.2222222   0.1111112   0.0000000), wk =   0.0000000
        k(  157) = (   0.2777778  -0.0555556   0.0000000), wk =   0.0123457
        k(  158) = (   0.2777778  -0.2222221   0.0000000), wk =   0.0000000
        k(  159) = (   0.2777778  -0.3333333   0.0000000), wk =   0.0123457
        k(  160) = (   0.2777778  -0.4999999   0.0000000), wk =   0.0000000
        k(  161) = (  -0.3333333   0.0555556   0.0000000), wk =   0.0123457
        k(  162) = (  -0.3333333  -0.1111110   0.0000000), wk =   0.0000000
        k(  163) = (  -0.0555556  -0.2777778   0.0000000), wk =   0.0123457
        k(  164) = (  -0.0555556  -0.4444444   0.0000000), wk =   0.0000000
        k(  165) = (  -0.2777778   0.3333333   0.0000000), wk =   0.0123457
        k(  166) = (  -0.2777778   0.1666667   0.0000000), wk =   0.0000000
        k(  167) = (   0.3333333  -0.0555556   0.0000000), wk =   0.0123457
        k(  168) = (   0.3333333  -0.2222221   0.0000000), wk =   0.0000000
        k(  169) = (   0.3333333  -0.3888889   0.0000000), wk =   0.0123457
        k(  170) = (   0.3333333  -0.5555555   0.0000000), wk =   0.0000000
        k(  171) = (  -0.3888889   0.0555556   0.0000000), wk =   0.0123457
        k(  172) = (  -0.3888889  -0.1111110   0.0000000), wk =   0.0000000
        k(  173) = (  -0.0555556  -0.3333333   0.0000000), wk =   0.0123457
        k(  174) = (  -0.0555556  -0.4999999   0.0000000), wk =   0.0000000
        k(  175) = (  -0.3333333   0.3888889   0.0000000), wk =   0.0123457
        k(  176) = (  -0.3333333   0.2222223   0.0000000), wk =   0.0000000
        k(  177) = (   0.3888889  -0.0555556   0.0000000), wk =   0.0123457
        k(  178) = (   0.3888889  -0.2222221   0.0000000), wk =   0.0000000
        k(  179) = (   0.3888889  -0.4444444   0.0000000), wk =   0.0123457
        k(  180) = (   0.3888889  -0.6111110   0.0000000), wk =   0.0000000
        k(  181) = (  -0.4444444   0.0555556   0.0000000), wk =   0.0123457
        k(  182) = (  -0.4444444  -0.1111110   0.0000000), wk =   0.0000000
        k(  183) = (  -0.0555556  -0.3888889   0.0000000), wk =   0.0123457
        k(  184) = (  -0.0555556  -0.5555555   0.0000000), wk =   0.0000000
        k(  185) = (  -0.3888889   0.4444444   0.0000000), wk =   0.0123457
        k(  186) = (  -0.3888889   0.2777779   0.0000000), wk =   0.0000000
        k(  187) = (   0.4444444  -0.0555556   0.0000000), wk =   0.0123457
        k(  188) = (   0.4444444  -0.2222221   0.0000000), wk =   0.0000000
        k(  189) = (   0.4444444  -0.5000000   0.0000000), wk =   0.0123457
        k(  190) = (   0.4444444  -0.6666666   0.0000000), wk =   0.0000000
        k(  191) = (  -0.5000000   0.0555556   0.0000000), wk =   0.0123457
        k(  192) = (  -0.5000000  -0.1111110   0.0000000), wk =   0.0000000
        k(  193) = (  -0.0555556  -0.4444444   0.0000000), wk =   0.0123457
        k(  194) = (  -0.0555556  -0.6111110   0.0000000), wk =   0.0000000
        k(  195) = (  -0.4444444   0.5000000   0.0000000), wk =   0.0123457
        k(  196) = (  -0.4444444   0.3333334   0.0000000), wk =   0.0000000
        k(  197) = (   0.5000000  -0.0555556   0.0000000), wk =   0.0123457
        k(  198) = (   0.5000000  -0.2222221   0.0000000), wk =   0.0000000
        k(  199) = (   0.1111111  -0.2222222   0.0000000), wk =   0.0123457
        k(  200) = (   0.1111111  -0.3888888   0.0000000), wk =   0.0000000
        k(  201) = (  -0.2222222   0.1111111   0.0000000), wk =   0.0123457
        k(  202) = (  -0.2222222  -0.0555555   0.0000000), wk =   0.0000000
        k(  203) = (   0.1666667  -0.2777778   0.0000000), wk =   0.0123457
        k(  204) = (   0.1666667  -0.4444444   0.0000000), wk =   0.0000000
        k(  205) = (  -0.2777778   0.1111111   0.0000000), wk =   0.0123457
        k(  206) = (  -0.2777778  -0.0555555   0.0000000), wk =   0.0000000
        k(  207) = (  -0.1111111  -0.1666667   0.0000000), wk =   0.0123457
        k(  208) = (  -0.1111111  -0.3333333   0.0000000), wk =   0.0000000
        k(  209) = (  -0.1666667   0.2777778   0.0000000), wk =   0.0123457
        k(  210) = (  -0.1666667   0.1111112   0.0000000), wk =   0.0000000
        k(  211) = (   0.2777778  -0.1111111   0.0000000), wk =   0.0123457
        k(  212) = (   0.2777778  -0.2777777   0.0000000), wk =   0.0000000
        k(  213) = (   0.2222222  -0.3333333   0.0000000), wk =   0.0123457
        k(  214) = (   0.2222222  -0.4999999   0.0000000), wk =   0.0000000
        k(  215) = (  -0.3333333   0.1111111   0.0000000), wk =   0.0123457
        k(  216) = (  -0.3333333  -0.0555555   0.0000000), wk =   0.0000000
        k(  217) = (  -0.1111111  -0.2222222   0.0000000), wk =   0.0123457
        k(  218) = (  -0.1111111  -0.3888888   0.0000000), wk =   0.0000000
        k(  219) = (  -0.2222222   0.3333333   0.0000000), wk =   0.0123457
        k(  220) = (  -0.2222222   0.1666667   0.0000000), wk =   0.0000000
        k(  221) = (   0.3333333  -0.1111111   0.0000000), wk =   0.0123457
        k(  222) = (   0.3333333  -0.2777777   0.0000000), wk =   0.0000000
        k(  223) = (   0.2777778  -0.3888889   0.0000000), wk =   0.0123457
        k(  224) = (   0.2777778  -0.5555555   0.0000000), wk =   0.0000000
        k(  225) = (  -0.3888889   0.1111111   0.0000000), wk =   0.0123457
        k(  226) = (  -0.3888889  -0.0555555   0.0000000), wk =   0.0000000
        k(  227) = (  -0.1111111  -0.2777778   0.0000000), wk =   0.0123457
        k(  228) = (  -0.1111111  -0.4444444   0.0000000), wk =   0.0000000
        k(  229) = (  -0.2777778   0.3888889   0.0000000), wk =   0.0123457
        k(  230) = (  -0.2777778   0.2222223   0.0000000), wk =   0.0000000
        k(  231) = (   0.3888889  -0.1111111   0.0000000), wk =   0.0123457
        k(  232) = (   0.3888889  -0.2777777   0.0000000), wk =   0.0000000
        k(  233) = (   0.3333333  -0.4444444   0.0000000), wk =   0.0123457
        k(  234) = (   0.3333333  -0.6111110   0.0000000), wk =   0.0000000
        k(  235) = (  -0.4444444   0.1111111   0.0000000), wk =   0.0123457
        k(  236) = (  -0.4444444  -0.0555555   0.0000000), wk =   0.0000000
        k(  237) = (  -0.1111111  -0.3333333   0.0000000), wk =   0.0123457
        k(  238) = (  -0.1111111  -0.4999999   0.0000000), wk =   0.0000000
        k(  239) = (  -0.3333333   0.4444444   0.0000000), wk =   0.0123457
        k(  240) = (  -0.3333333   0.2777779   0.0000000), wk =   0.0000000
        k(  241) = (   0.4444444  -0.1111111   0.0000000), wk =   0.0123457
        k(  242) = (   0.4444444  -0.2777777   0.0000000), wk =   0.0000000
        k(  243) = (   0.3888889  -0.5000000   0.0000000), wk =   0.0123457
        k(  244) = (   0.3888889  -0.6666666   0.0000000), wk =   0.0000000
        k(  245) = (  -0.5000000   0.1111111   0.0000000), wk =   0.0123457
        k(  246) = (  -0.5000000  -0.0555555   0.0000000), wk =   0.0000000
        k(  247) = (  -0.1111111  -0.3888889   0.0000000), wk =   0.0123457
        k(  248) = (  -0.1111111  -0.5555555   0.0000000), wk =   0.0000000
        k(  249) = (  -0.3888889   0.5000000   0.0000000), wk =   0.0123457
        k(  250) = (  -0.3888889   0.3333334   0.0000000), wk =   0.0000000
        k(  251) = (   0.5000000  -0.1111111   0.0000000), wk =   0.0123457
        k(  252) = (   0.5000000  -0.2777777   0.0000000), wk =   0.0000000
        k(  253) = (   0.4444444  -0.5555556   0.0000000), wk =   0.0123457
        k(  254) = (   0.4444444  -0.7222221   0.0000000), wk =   0.0000000
        k(  255) = (  -0.5555556   0.1111111   0.0000000), wk =   0.0123457
        k(  256) = (  -0.5555556  -0.0555555   0.0000000), wk =   0.0000000
        k(  257) = (   0.1666667  -0.3333333   0.0000000), wk =   0.0123457
        k(  258) = (   0.1666667  -0.4999999   0.0000000), wk =   0.0000000
        k(  259) = (  -0.3333333   0.1666667   0.0000000), wk =   0.0123457
        k(  260) = (  -0.3333333   0.0000001   0.0000000), wk =   0.0000000
        k(  261) = (   0.2222222  -0.3888889   0.0000000), wk =   0.0123457
        k(  262) = (   0.2222222  -0.5555555   0.0000000), wk =   0.0000000
        k(  263) = (  -0.3888889   0.1666667   0.0000000), wk =   0.0123457
        k(  264) = (  -0.3888889   0.0000001   0.0000000), wk =   0.0000000
        k(  265) = (  -0.1666667  -0.2222222   0.0000000), wk =   0.0123457
        k(  266) = (  -0.1666667  -0.3888888   0.0000000), wk =   0.0000000
        k(  267) = (  -0.2222222   0.3888889   0.0000000), wk =   0.0123457
        k(  268) = (  -0.2222222   0.2222223   0.0000000), wk =   0.0000000
        k(  269) = (   0.3888889  -0.1666667   0.0000000), wk =   0.0123457
        k(  270) = (   0.3888889  -0.3333333   0.0000000), wk =   0.0000000
        k(  271) = (   0.2777778  -0.4444444   0.0000000), wk =   0.0123457
        k(  272) = (   0.2777778  -0.6111110   0.0000000), wk =   0.0000000
        k(  273) = (  -0.4444444   0.1666667   0.0000000), wk =   0.0123457
        k(  274) = (  -0.4444444   0.0000001   0.0000000), wk =   0.0000000
        k(  275) = (  -0.1666667  -0.2777778   0.0000000), wk =   0.0123457
        k(  276) = (  -0.1666667  -0.4444444   0.0000000), wk =   0.0000000
        k(  277) = (  -0.2777778   0.4444444   0.0000000), wk =   0.0123457
        k(  278) = (  -0.2777778   0.2777779   0.0000000), wk =   0.0000000
        k(  279) = (   0.4444444  -0.1666667   0.0000000), wk =   0.0123457
        k(  280) = (   0.4444444  -0.3333333   0.0000000), wk =   0.0000000
        k(  281) = (   0.3333333  -0.5000000   0.0000000), wk =   0.0123457
        k(  282) = (   0.3333333  -0.6666666   0.0000000), wk =   0.0000000
        k(  283) = (  -0.5000000   0.1666667   0.0000000), wk =   0.0123457
        k(  284) = (  -0.5000000   0.0000001   0.0000000), wk =   0.0000000
        k(  285) = (  -0.1666667  -0.3333333   0.0000000), wk =   0.0123457
        k(  286) = (  -0.1666667  -0.4999999   0.0000000), wk =   0.0000000
        k(  287) = (  -0.3333333   0.5000000   0.0000000), wk =   0.0123457
        k(  288) = (  -0.3333333   0.3333334   0.0000000), wk =   0.0000000
        k(  289) = (   0.5000000  -0.1666667   0.0000000), wk =   0.0123457
        k(  290) = (   0.5000000  -0.3333333   0.0000000), wk =   0.0000000
        k(  291) = (   0.3888889  -0.5555556   0.0000000), wk =   0.0123457
        k(  292) = (   0.3888889  -0.7222221   0.0000000), wk =   0.0000000
        k(  293) = (  -0.5555556   0.1666667   0.0000000), wk =   0.0123457
        k(  294) = (  -0.5555556   0.0000001   0.0000000), wk =   0.0000000
        k(  295) = (  -0.1666667  -0.3888889   0.0000000), wk =   0.0123457
        k(  296) = (  -0.1666667  -0.5555555   0.0000000), wk =   0.0000000
        k(  297) = (  -0.3888889   0.5555556   0.0000000), wk =   0.0123457
        k(  298) = (  -0.3888889   0.3888890   0.0000000), wk =   0.0000000
        k(  299) = (   0.5555556  -0.1666667   0.0000000), wk =   0.0123457
        k(  300) = (   0.5555556  -0.3333333   0.0000000), wk =   0.0000000
        k(  301) = (   0.2222222  -0.4444444   0.0000000), wk =   0.0123457
        k(  302) = (   0.2222222  -0.6111110   0.0000000), wk =   0.0000000
        k(  303) = (  -0.4444444   0.2222222   0.0000000), wk =   0.0123457
        k(  304) = (  -0.4444444   0.0555556   0.0000000), wk =   0.0000000
        k(  305) = (   0.2777778  -0.5000000   0.0000000), wk =   0.0123457
        k(  306) = (   0.2777778  -0.6666666   0.0000000), wk =   0.0000000
        k(  307) = (  -0.5000000   0.2222222   0.0000000), wk =   0.0123457
        k(  308) = (  -0.5000000   0.0555556   0.0000000), wk =   0.0000000
        k(  309) = (  -0.2222222  -0.2777778   0.0000000), wk =   0.0123457
        k(  310) = (  -0.2222222  -0.4444444   0.0000000), wk =   0.0000000
        k(  311) = (  -0.2777778   0.5000000   0.0000000), wk =   0.0123457
        k(  312) = (  -0.2777778   0.3333334   0.0000000), wk =   0.0000000
        k(  313) = (   0.5000000  -0.2222222   0.0000000), wk =   0.0123457
        k(  314) = (   0.5000000  -0.3888888   0.0000000), wk =   0.0000000
        k(  315) = (   0.3333333  -0.5555556   0.0000000), wk =   0.0123457
        k(  316) = (   0.3333333  -0.7222221   0.0000000), wk =   0.0000000
        k(  317) = (  -0.5555556   0.2222222   0.0000000), wk =   0.0123457
        k(  318) = (  -0.5555556   0.0555556   0.0000000), wk =   0.0000000
        k(  319) = (  -0.2222222  -0.3333333   0.0000000), wk =   0.0123457
        k(  320) = (  -0.2222222  -0.4999999   0.0000000), wk =   0.0000000
        k(  321) = (  -0.3333333   0.5555556   0.0000000), wk =   0.0123457
        k(  322) = (  -0.3333333   0.3888890   0.0000000), wk =   0.0000000
        k(  323) = (   0.5555556  -0.2222222   0.0000000), wk =   0.0123457
        k(  324) = (   0.5555556  -0.3888888   0.0000000), wk =   0.0000000
        k(  325) = (   0.3888889  -0.6111111   0.0000000), wk =   0.0123457
        k(  326) = (   0.3888889  -0.7777777   0.0000000), wk =   0.0000000
        k(  327) = (  -0.6111111   0.2222222   0.0000000), wk =   0.0123457
        k(  328) = (  -0.6111111   0.0555556   0.0000000), wk =   0.0000000
        k(  329) = (   0.2777778  -0.5555556   0.0000000), wk =   0.0123457
        k(  330) = (   0.2777778  -0.7222221   0.0000000), wk =   0.0000000
        k(  331) = (  -0.5555556   0.2777778   0.0000000), wk =   0.0123457
        k(  332) = (  -0.5555556   0.1111112   0.0000000), wk =   0.0000000
        k(  333) = (   0.3333333  -0.6111111   0.0000000), wk =   0.0123457
        k(  334) = (   0.3333333  -0.7777777   0.0000000), wk =   0.0000000
        k(  335) = (  -0.6111111   0.2777778   0.0000000), wk =   0.0123457
        k(  336) = (  -0.6111111   0.1111112   0.0000000), wk =   0.0000000
        k(  337) = (  -0.2777778  -0.3333333   0.0000000), wk =   0.0123457
        k(  338) = (  -0.2777778  -0.4999999   0.0000000), wk =   0.0000000
        k(  339) = (  -0.3333333   0.6111111   0.0000000), wk =   0.0123457
        k(  340) = (  -0.3333333   0.4444445   0.0000000), wk =   0.0000000
        k(  341) = (   0.6111111  -0.2777778   0.0000000), wk =   0.0123457
        k(  342) = (   0.6111111  -0.4444444   0.0000000), wk =   0.0000000

     PseudoPot. # 1 for Mo read from file:
     ../../pseudo/Mo.pbesol.dojo.upf
     MD5 check sum: c40353276b9086539cda6b9e5a66907b
     Pseudo is Norm-conserving + core correction, Zval = 14.0
     Generated using ONCVPSP code by D. R. Hamann
     Using radial grid of 1640 points,  6 beta functions with: 
                l(1) =   0
                l(2) =   0
                l(3) =   1
                l(4) =   1
                l(5) =   2
                l(6) =   2

     PseudoPot. # 2 for S  read from file:
     ../../pseudo/S.pbesol.dojo.upf
     MD5 check sum: 501737efeeef1fb1c631cda521d4e019
     Pseudo is Norm-conserving + core correction, Zval =  6.0
     Generated using ONCVPSP code by D. R. Hamann
     Using radial grid of 1146 points,  6 beta functions with: 
                l(1) =   0
                l(2) =   0
                l(3) =   1
                l(4) =   1
                l(5) =   2
                l(6) =   2

     point group C_2v (mm2) 
     there are  4 classes
     the character table:

       E     C2    s_v   s_v' 
A_1    1.00  1.00  1.00  1.00
A_2    1.00  1.00 -1.00 -1.00
B_1    1.00 -1.00  1.00 -1.00
B_2    1.00 -1.00 -1.00  1.00

     the symmetry operations in each class and the name of the first element:

     E        1
                                                                 
     C2       3
                                                                 
     s_v      2
                                                                 
     s_v'     4
                                                                 


     Atomic displacements:
     There are    9 irreducible representations

     Representation     1      1 modes -  Done
     Irreps are as follows:

                     mode #   1
                     (  -0.00000  -0.00000   ) 
                     (  -0.00000  -0.00000   ) 
                     (  -0.00000  -0.00000   ) 
                     (  -0.00000   0.00000   ) 
                     (  -0.50180  -0.00000   ) 
                     (  -0.42208   0.26466   ) 
                     (  -0.00000   0.00000   ) 
                     (  -0.50180   0.00000   ) 
                     (   0.42208  -0.26466   ) 

     Representation     2      1 modes -  Done
     Irreps are as follows:

                     mode #   2
                     (  -0.00000  -0.00000   ) 
                     (  -0.00000  -0.00000   ) 
                     (  -0.00000  -0.00000   ) 
                     (  -0.00000   0.00000   ) 
                     (  -0.49820  -0.00000   ) 
                     (   0.42513  -0.26657   ) 
                     (  -0.00000   0.00000   ) 
                     (  -0.49820  -0.00000   ) 
                     (  -0.42513   0.26657   ) 

     Representation     3      1 modes -  Done
     Irreps are as follows:

                     mode #   3
                     (   0.00000  -0.00000   ) 
                     (  -1.00000   0.00000   ) 
                     (   0.00000  -0.00000   ) 
                     (   0.00000  -0.00000   ) 
                     (   0.00000  -0.00000   ) 
                     (   0.00000  -0.00000   ) 
                     (   0.00000  -0.00000   ) 
                     (   0.00000  -0.00000   ) 
                     (   0.00000  -0.00000   ) 

     Representation     4      1 modes -  Done
     Irreps are as follows:

                     mode #   4
                     (   0.00000  -0.00000   ) 
                     (   0.00000  -0.00000   ) 
                     (   0.00000  -0.00000   ) 
                     (  -0.70711   0.00000   ) 
                     (   0.00000  -0.00000   ) 
                     (   0.00000   0.00000   ) 
                     (   0.70711  -0.00000   ) 
                     (  -0.00000  -0.00000   ) 
                     (   0.00000  -0.00000   ) 

     Representation     5      1 modes -  Done
     Irreps are as follows:

                     mode #   5
                     (  -0.00000  -0.00000   ) 
                     (  -0.00000  -0.00000   ) 
                     (  -0.00000  -0.00000   ) 
                     (  -0.70711   0.00000   ) 
                     (   0.00000   0.00000   ) 
                     (  -0.00000   0.00000   ) 
                     (  -0.70711  -0.00000   ) 
                     (   0.00000   0.00000   ) 
                     (   0.00000   0.00000   ) 

     Representation     6      1 modes -  Done
     Irreps are as follows:

                     mode #   6
                     (  -1.00000  -0.00000   ) 
                     (  -0.00000  -0.00000   ) 
                     (  -0.00000  -0.00000   ) 
                     (  -0.00000  -0.00000   ) 
                     (  -0.00000  -0.00000   ) 
                     (  -0.00000  -0.00000   ) 
                     (  -0.00000  -0.00000   ) 
                     (  -0.00000  -0.00000   ) 
                     (  -0.00000  -0.00000   ) 

     Representation     7      1 modes -  Done
     Irreps are as follows:

                     mode #   7
                     (  -0.00000   0.00000   ) 
                     (  -0.00000   0.00000   ) 
                     (  -0.00000   0.00000   ) 
                     (   0.00000   0.00000   ) 
                     (  -0.31106  -0.00000   ) 
                     (   0.31006   0.55417   ) 
                     (   0.00000   0.00000   ) 
                     (   0.31106  -0.00000   ) 
                     (   0.31006   0.55417   ) 

     Representation     8      1 modes -  To be done
     Irreps are as follows:

                     mode #   8
                     (  -0.00000  -0.00000   ) 
                     (  -0.00000  -0.00000   ) 
                     (  -1.00000  -0.00000   ) 
                     (  -0.00000  -0.00000   ) 
                     (  -0.00000  -0.00000   ) 
                     (  -0.00000  -0.00000   ) 
                     (  -0.00000  -0.00000   ) 
                     (  -0.00000  -0.00000   ) 
                     (  -0.00000  -0.00000   ) 

     Representation     9      1 modes -  To be done
     Irreps are as follows:

                     mode #   9
                     (  -0.00000  -0.00000   ) 
                     (  -0.00000  -0.00000   ) 
                     (  -0.00000  -0.00000   ) 
                     (  -0.00000  -0.00000   ) 
                     (  -0.63501   0.00000   ) 
                     (  -0.15188  -0.27146   ) 
                     (  -0.00000  -0.00000   ) 
                     (   0.63501   0.00000   ) 
                     (  -0.15188  -0.27146   ) 


     Message from routine init_vloc:
     Interpolation table for Vloc re-allocated
     PHONON       :      6.86s CPU      7.54s WALL



     Representation #   8 mode #   8

     Self-consistent Calculation

      iter #   3 total cpu time :    23.4 secs   av.it.:  12.6
      thresh= 3.797E-04 alpha_mix =  0.300 |ddv_scf|^2 =  2.678E-08

      iter #   4 total cpu time :    37.3 secs   av.it.:  18.6
      thresh= 1.636E-05 alpha_mix =  0.300 |ddv_scf|^2 =  8.041E-10

      iter #   5 total cpu time :    51.3 secs   av.it.:  18.5
      thresh= 2.836E-06 alpha_mix =  0.300 |ddv_scf|^2 =  1.035E-10

      iter #   6 total cpu time :    65.5 secs   av.it.:  19.2
      thresh= 1.018E-06 alpha_mix =  0.300 |ddv_scf|^2 =  1.380E-11

      iter #   7 total cpu time :    79.3 secs   av.it.:  18.6
      thresh= 3.715E-07 alpha_mix =  0.300 |ddv_scf|^2 =  4.567E-12

      iter #   8 total cpu time :    93.2 secs   av.it.:  18.7
      thresh= 2.137E-07 alpha_mix =  0.300 |ddv_scf|^2 =  1.305E-13

      iter #   9 total cpu time :   106.8 secs   av.it.:  18.1
      thresh= 3.613E-08 alpha_mix =  0.300 |ddv_scf|^2 =  4.452E-14

      iter #  10 total cpu time :   121.2 secs   av.it.:  19.5
      thresh= 2.110E-08 alpha_mix =  0.300 |ddv_scf|^2 =  3.285E-15

      iter #  11 total cpu time :   135.3 secs   av.it.:  18.8
      thresh= 5.732E-09 alpha_mix =  0.300 |ddv_scf|^2 =  6.696E-16

     End of self-consistent calculation

     Convergence has been achieved 


     Representation #   9 mode #   9

     Self-consistent Calculation

      iter #   1 total cpu time :   144.0 secs   av.it.:   9.8
      thresh= 1.000E-02 alpha_mix =  0.300 |ddv_scf|^2 =  2.122E-06

      iter #   2 total cpu time :   156.5 secs   av.it.:  16.4
      thresh= 1.457E-04 alpha_mix =  0.300 |ddv_scf|^2 =  1.151E-06

      iter #   3 total cpu time :   168.9 secs   av.it.:  16.1
      thresh= 1.073E-04 alpha_mix =  0.300 |ddv_scf|^2 =  9.524E-09

      iter #   4 total cpu time :   182.1 secs   av.it.:  17.6
      thresh= 9.759E-06 alpha_mix =  0.300 |ddv_scf|^2 =  1.108E-10

      iter #   5 total cpu time :   195.5 secs   av.it.:  17.8
      thresh= 1.053E-06 alpha_mix =  0.300 |ddv_scf|^2 =  3.323E-11

      iter #   6 total cpu time :   209.5 secs   av.it.:  18.8
      thresh= 5.764E-07 alpha_mix =  0.300 |ddv_scf|^2 =  1.374E-12

      iter #   7 total cpu time :   223.1 secs   av.it.:  18.1
      thresh= 1.172E-07 alpha_mix =  0.300 |ddv_scf|^2 =  7.619E-13

      iter #   8 total cpu time :   236.4 secs   av.it.:  17.7
      thresh= 8.729E-08 alpha_mix =  0.300 |ddv_scf|^2 =  7.441E-14

      iter #   9 total cpu time :   250.1 secs   av.it.:  18.4
      thresh= 2.728E-08 alpha_mix =  0.300 |ddv_scf|^2 =  1.617E-14

      iter #  10 total cpu time :   264.0 secs   av.it.:  18.6
      thresh= 1.272E-08 alpha_mix =  0.300 |ddv_scf|^2 =  4.988E-15

      iter #  11 total cpu time :   277.5 secs   av.it.:  17.9
      thresh= 7.063E-09 alpha_mix =  0.300 |ddv_scf|^2 =  6.855E-16

     End of self-consistent calculation

     Convergence has been achieved 

     Number of q in the star =    3
     List of q in the star:
          1  -0.000000001  -0.192450000   0.000000000
          2  -0.166666588   0.096225001   0.000000000
          3   0.166666589   0.096224999  -0.000000000
     In addition there is the -q list: 
          1   0.000000001   0.192450000  -0.000000000
          2   0.166666588  -0.096225001  -0.000000000
          3  -0.166666589  -0.096224999   0.000000000

     Diagonalizing the dynamical matrix

     q = (   -0.000000001  -0.192450000   0.000000000 ) 

 **************************************************************************
     freq (    1) =       1.320406 [THz] =      44.043994 [cm-1]
     freq (    2) =       2.417852 [THz] =      80.650870 [cm-1]
     freq (    3) =       3.876096 [THz] =     129.292640 [cm-1]
     freq (    4) =       8.757399 [THz] =     292.115378 [cm-1]
     freq (    5) =       9.216619 [THz] =     307.433319 [cm-1]
     freq (    6) =      11.145680 [THz] =     371.779873 [cm-1]
     freq (    7) =      11.478159 [THz] =     382.870173 [cm-1]
     freq (    8) =      12.294409 [THz] =     410.097342 [cm-1]
     freq (    9) =      13.480464 [THz] =     449.659890 [cm-1]
 **************************************************************************

     Mode symmetry, C_2v (mm2)  point group:

     freq (   1-   1) =         44.0  [cm-1]   --> B_2  D_4  S_4      
     freq (   2-   2) =         80.7  [cm-1]   --> B_1  D_3  S_3      
     freq (   3-   3) =        129.3  [cm-1]   --> A_1  D_1  S_1      
     freq (   4-   4) =        292.1  [cm-1]   --> A_2  D_2  S_2      
     freq (   5-   5) =        307.4  [cm-1]   --> B_2  D_4  S_4      
     freq (   6-   6) =        371.8  [cm-1]   --> A_1  D_1  S_1      
     freq (   7-   7) =        382.9  [cm-1]   --> B_1  D_3  S_3      
     freq (   8-   8) =        410.1  [cm-1]   --> A_1  D_1  S_1      
     freq (   9-   9) =        449.7  [cm-1]   --> B_2  D_4  S_4      

     Calculation of q =   -0.0000000  -0.3849000   0.0000000

     Parallelization info
     --------------------
     sticks:   dense  smooth     PW     G-vecs:    dense   smooth      PW
     Min          15       6      1                 3631      892     123
     Max          16       7      2                 3664      942     178
     Sum        1945     769    241               467365   117995   20479

     Using Slab Decomposition


     Title: 
     default                                                                    


     bravais-lattice index     =            4
     lattice parameter (alat)  =       5.9413  a.u.
     unit-cell volume          =    1222.6725 (a.u.)^3
     number of atoms/cell      =            3
     number of atomic types    =            2
     number of electrons       =        26.00
     number of Kohn-Sham states=           13
     kinetic-energy cutoff     =      80.0000  Ry
     charge density cutoff     =     800.0000  Ry
     Exchange-correlation= PBESOL
                           (   1   4  10   8   0   0   0)

     celldm(1)=   5.941254  celldm(2)=   0.000000  celldm(3)=   6.732015
     celldm(4)=   0.000000  celldm(5)=   0.000000  celldm(6)=   0.000000

     crystal axes: (cart. coord. in units of alat)
               a(1) = (   1.000000   0.000000   0.000000 )  
               a(2) = (  -0.500000   0.866025   0.000000 )  
               a(3) = (   0.000000   0.000000   6.732015 )  

     reciprocal axes: (cart. coord. in units 2 pi/alat)
               b(1) = (  1.000000  0.577350 -0.000000 )  
               b(2) = (  0.000000  1.154701  0.000000 )  
               b(3) = (  0.000000 -0.000000  0.148544 )  


     PseudoPot. # 1 for Mo read from file:
     ../../pseudo/Mo.pbesol.dojo.upf
     MD5 check sum: c40353276b9086539cda6b9e5a66907b
     Pseudo is Norm-conserving + core correction, Zval = 14.0
     Generated using ONCVPSP code by D. R. Hamann
     Using radial grid of 1640 points,  6 beta functions with: 
                l(1) =   0
                l(2) =   0
                l(3) =   1
                l(4) =   1
                l(5) =   2
                l(6) =   2

     PseudoPot. # 2 for S  read from file:
     ../../pseudo/S.pbesol.dojo.upf
     MD5 check sum: 501737efeeef1fb1c631cda521d4e019
     Pseudo is Norm-conserving + core correction, Zval =  6.0
     Generated using ONCVPSP code by D. R. Hamann
     Using radial grid of 1146 points,  6 beta functions with: 
                l(1) =   0
                l(2) =   0
                l(3) =   1
                l(4) =   1
                l(5) =   2
                l(6) =   2

     atomic species   valence    mass     pseudopotential
     Mo               14.00    95.95000     Mo( 1.00)
     S                 6.00    32.06500     S ( 1.00)

     12 Sym. Ops. (no inversion) found


                                    s                        frac. trans.

      isym =  1     identity                                     

 cryst.   s( 1) = (     1          0          0      )
                  (     0          1          0      )
                  (     0          0          1      )

 cart.    s( 1) = (  1.0000000  0.0000000  0.0000000 )
                  (  0.0000000  1.0000000  0.0000000 )
                  (  0.0000000  0.0000000  1.0000000 )


      isym =  2     inv. 180 deg rotation - cart. axis [0,0,1]   

 cryst.   s( 2) = (     1          0          0      )
                  (     0          1          0      )
                  (     0          0         -1      )

 cart.    s( 2) = (  1.0000000  0.0000000  0.0000000 )
                  (  0.0000000  1.0000000  0.0000000 )
                  (  0.0000000  0.0000000 -1.0000000 )


      isym =  3     180 deg rotation - cart. axis [0,1,0]        

 cryst.   s( 3) = (    -1          0          0      )
                  (     1          1          0      )
                  (     0          0         -1      )

 cart.    s( 3) = ( -1.0000000  0.0000000  0.0000000 )
                  (  0.0000000  1.0000000  0.0000000 )
                  (  0.0000000  0.0000000 -1.0000000 )


      isym =  4     inv. 180 deg rotation - cart. axis [1,0,0]   

 cryst.   s( 4) = (    -1          0          0      )
                  (     1          1          0      )
                  (     0          0          1      )

 cart.    s( 4) = ( -1.0000000  0.0000000  0.0000000 )
                  (  0.0000000  1.0000000  0.0000000 )
                  (  0.0000000  0.0000000  1.0000000 )


      isym =  5     inv.  60 deg rotation - cryst. axis [0,0,1]  

 cryst.   s( 5) = (    -1         -1          0      )
                  (     1          0          0      )
                  (     0          0         -1      )

 cart.    s( 5) = ( -0.5000000  0.8660254  0.0000000 )
                  ( -0.8660254 -0.5000000  0.0000000 )
                  (  0.0000000  0.0000000 -1.0000000 )


      isym =  6     inv.  60 deg rotation - cryst. axis [0,0,-1] 

 cryst.   s( 6) = (     0          1          0      )
                  (    -1         -1          0      )
                  (     0          0         -1      )

 cart.    s( 6) = ( -0.5000000 -0.8660254  0.0000000 )
                  (  0.8660254 -0.5000000  0.0000000 )
                  (  0.0000000  0.0000000 -1.0000000 )


      isym =  7     120 deg rotation - cryst. axis [0,0,1]       

 cryst.   s( 7) = (     0          1          0      )
                  (    -1         -1          0      )
                  (     0          0          1      )

 cart.    s( 7) = ( -0.5000000 -0.8660254  0.0000000 )
                  (  0.8660254 -0.5000000  0.0000000 )
                  (  0.0000000  0.0000000  1.0000000 )


      isym =  8     120 deg rotation - cryst. axis [0,0,-1]      

 cryst.   s( 8) = (    -1         -1          0      )
                  (     1          0          0      )
                  (     0          0          1      )

 cart.    s( 8) = ( -0.5000000  0.8660254  0.0000000 )
                  ( -0.8660254 -0.5000000  0.0000000 )
                  (  0.0000000  0.0000000  1.0000000 )


      isym =  9     180 deg rotation - cryst. axis [1,-1,0]      

 cryst.   s( 9) = (     0         -1          0      )
                  (    -1          0          0      )
                  (     0          0         -1      )

 cart.    s( 9) = (  0.5000000 -0.8660254  0.0000000 )
                  ( -0.8660254 -0.5000000  0.0000000 )
                  (  0.0000000  0.0000000 -1.0000000 )


      isym = 10     180 deg rotation - cryst. axis [2,1,0]       

 cryst.   s(10) = (     1          1          0      )
                  (     0         -1          0      )
                  (     0          0         -1      )

 cart.    s(10) = (  0.5000000  0.8660254  0.0000000 )
                  (  0.8660254 -0.5000000  0.0000000 )
                  (  0.0000000  0.0000000 -1.0000000 )


      isym = 11     inv. 180 deg rotation - cryst. axis [0,1,0]  

 cryst.   s(11) = (     1          1          0      )
                  (     0         -1          0      )
                  (     0          0          1      )

 cart.    s(11) = (  0.5000000  0.8660254  0.0000000 )
                  (  0.8660254 -0.5000000  0.0000000 )
                  (  0.0000000  0.0000000  1.0000000 )


      isym = 12     inv. 180 deg rotation - cryst. axis [1,1,0]  

 cryst.   s(12) = (     0         -1          0      )
                  (    -1          0          0      )
                  (     0          0          1      )

 cart.    s(12) = (  0.5000000 -0.8660254  0.0000000 )
                  ( -0.8660254 -0.5000000  0.0000000 )
                  (  0.0000000  0.0000000  1.0000000 )


     point group D_3h (-62m)
     there are  6 classes
     the character table:

       E     2C3   3C2   s_h   2S3   3s_v 
A'_1   1.00  1.00  1.00  1.00  1.00  1.00
A'_2   1.00  1.00 -1.00  1.00  1.00 -1.00
E'     2.00 -1.00  0.00  2.00 -1.00  0.00
A''1   1.00  1.00  1.00 -1.00 -1.00 -1.00
A''2   1.00  1.00 -1.00 -1.00 -1.00  1.00
E''    2.00 -1.00  0.00 -2.00  1.00  0.00

     the symmetry operations in each class and the name of the first element:

     E        1
          identity                                               
     2C3      7    8
[...]
     Irreps are as follows:

                     mode #   5
                     (  -0.70711  -0.00000   ) 
                     (  -0.00000   0.70711   ) 
                     (  -0.00000  -0.00000   ) 
                     (  -0.00000  -0.00000   ) 
                     (  -0.00000  -0.00000   ) 
                     (  -0.00000  -0.00000   ) 
                     (  -0.00000  -0.00000   ) 
                     (  -0.00000  -0.00000   ) 
                     (  -0.00000  -0.00000   ) 

     Representation     6      1 modes -  To be done
     Irreps are as follows:

                     mode #   6
                     (   0.00000  -0.00000   ) 
                     (   0.00000  -0.00000   ) 
                     (   0.00000  -0.00000   ) 
                     (  -0.50000  -0.00000   ) 
                     (  -0.00000   0.50000   ) 
                     (  -0.00000   0.00000   ) 
                     (   0.50000   0.00000   ) 
                     (  -0.00000  -0.50000   ) 
                     (  -0.00000   0.00000   ) 

     Representation     7      1 modes -  To be done
     Irreps are as follows:

                     mode #   7
                     (  -0.00000  -0.00000   ) 
                     (  -0.00000  -0.00000   ) 
                     (  -1.00000  -0.00000   ) 
                     (  -0.00000  -0.00000   ) 
                     (  -0.00000  -0.00000   ) 
                     (  -0.00000  -0.00000   ) 
                     (  -0.00000  -0.00000   ) 
                     (  -0.00000  -0.00000   ) 
                     (  -0.00000  -0.00000   ) 

     Representation     8      1 modes -  To be done
     Irreps are as follows:

                     mode #   8
                     (   0.00000  -0.00000   ) 
                     (   0.00000  -0.00000   ) 
                     (   0.00000  -0.00000   ) 
                     (  -0.50000   0.00000   ) 
                     (  -0.00000  -0.50000   ) 
                     (  -0.00000  -0.00000   ) 
                     (   0.50000  -0.00000   ) 
                     (   0.00000   0.50000   ) 
                     (   0.00000  -0.00000   ) 

     Representation     9      1 modes -  To be done
     Irreps are as follows:

                     mode #   9
                     (  -0.00000  -0.00000   ) 
                     (  -0.00000  -0.00000   ) 
                     (  -0.00000  -0.00000   ) 
                     (   0.00000  -0.00000   ) 
                     (   0.00000   0.00000   ) 
                     (  -0.70711   0.00000   ) 
                     (  -0.00000   0.00000   ) 
                     (  -0.00000  -0.00000   ) 
                     (  -0.70711  -0.00000   ) 



     Alpha used in Ewald sum =   2.8000
     PHONON       :      1h52m CPU      1h58m WALL



     Representation #   1 mode #   1

     Self-consistent Calculation

      iter #   1 total cpu time :  7138.8 secs   av.it.:   9.8
      thresh= 1.000E-02 alpha_mix =  0.300 |ddv_scf|^2 =  1.646E-07

      iter #   2 total cpu time :  7148.0 secs   av.it.:  18.5
      thresh= 4.058E-05 alpha_mix =  0.300 |ddv_scf|^2 =  4.753E-09

      iter #   3 total cpu time :  7157.3 secs   av.it.:  18.8
      thresh= 6.894E-06 alpha_mix =  0.300 |ddv_scf|^2 =  3.286E-10

      iter #   4 total cpu time :  7166.9 secs   av.it.:  19.7
      thresh= 1.813E-06 alpha_mix =  0.300 |ddv_scf|^2 =  1.923E-11

      iter #   5 total cpu time :  7176.5 secs   av.it.:  19.2
      thresh= 4.386E-07 alpha_mix =  0.300 |ddv_scf|^2 =  2.037E-12

      iter #   6 total cpu time :  7186.3 secs   av.it.:  19.9
      thresh= 1.427E-07 alpha_mix =  0.300 |ddv_scf|^2 =  8.305E-14

      iter #   7 total cpu time :  7195.6 secs   av.it.:  18.8
      thresh= 2.882E-08 alpha_mix =  0.300 |ddv_scf|^2 =  2.996E-14

      iter #   8 total cpu time :  7205.5 secs   av.it.:  20.3
      thresh= 1.731E-08 alpha_mix =  0.300 |ddv_scf|^2 =  3.378E-16

     End of self-consistent calculation

     Convergence has been achieved 


     Representation #   2 mode #   2

     Self-consistent Calculation

      iter #   1 total cpu time :  7212.0 secs   av.it.:  11.4
      thresh= 1.000E-02 alpha_mix =  0.300 |ddv_scf|^2 =  1.365E-06

      iter #   2 total cpu time :  7221.2 secs   av.it.:  18.4
      thresh= 1.168E-04 alpha_mix =  0.300 |ddv_scf|^2 =  3.684E-08

      iter #   3 total cpu time :  7230.5 secs   av.it.:  18.6
      thresh= 1.919E-05 alpha_mix =  0.300 |ddv_scf|^2 =  2.739E-09

      iter #   4 total cpu time :  7240.2 secs   av.it.:  19.8
      thresh= 5.234E-06 alpha_mix =  0.300 |ddv_scf|^2 =  9.802E-11

      iter #   5 total cpu time :  7249.9 secs   av.it.:  19.6
      thresh= 9.900E-07 alpha_mix =  0.300 |ddv_scf|^2 =  1.562E-11

      iter #   6 total cpu time :  7259.7 secs   av.it.:  19.9
      thresh= 3.952E-07 alpha_mix =  0.300 |ddv_scf|^2 =  3.568E-13

      iter #   7 total cpu time :  7269.3 secs   av.it.:  19.4
      thresh= 5.973E-08 alpha_mix =  0.300 |ddv_scf|^2 =  1.022E-13

      iter #   8 total cpu time :  7279.2 secs   av.it.:  20.3
      thresh= 3.197E-08 alpha_mix =  0.300 |ddv_scf|^2 =  2.308E-15

      iter #   9 total cpu time :  7289.4 secs   av.it.:  20.7
      thresh= 4.804E-09 alpha_mix =  0.300 |ddv_scf|^2 =  1.326E-16

     End of self-consistent calculation

     Convergence has been achieved 


     Representation #   3 mode #   3

     Self-consistent Calculation

      iter #   1 total cpu time :  7295.4 secs   av.it.:   9.7
      thresh= 1.000E-02 alpha_mix =  0.300 |ddv_scf|^2 =  6.687E-07

      iter #   2 total cpu time :  7304.5 secs   av.it.:  18.5
      thresh= 8.177E-05 alpha_mix =  0.300 |ddv_scf|^2 =  1.195E-06

      iter #   3 total cpu time :  7313.2 secs   av.it.:  17.1
      thresh= 1.093E-04 alpha_mix =  0.300 |ddv_scf|^2 =  1.711E-08

      iter #   4 total cpu time :  7322.4 secs   av.it.:  18.2
      thresh= 1.308E-05 alpha_mix =  0.300 |ddv_scf|^2 =  3.322E-09

      iter #   5 total cpu time :  7331.1 secs   av.it.:  17.4
      thresh= 5.763E-06 alpha_mix =  0.300 |ddv_scf|^2 =  5.901E-11

      iter #   6 total cpu time :  7340.5 secs   av.it.:  18.9
      thresh= 7.682E-07 alpha_mix =  0.300 |ddv_scf|^2 =  9.614E-12

      iter #   7 total cpu time :  7350.3 secs   av.it.:  19.8
      thresh= 3.101E-07 alpha_mix =  0.300 |ddv_scf|^2 =  4.313E-13

      iter #   8 total cpu time :  7359.9 secs   av.it.:  19.8
      thresh= 6.567E-08 alpha_mix =  0.300 |ddv_scf|^2 =  4.224E-14

      iter #   9 total cpu time :  7369.3 secs   av.it.:  18.9
      thresh= 2.055E-08 alpha_mix =  0.300 |ddv_scf|^2 =  7.737E-15

      iter #  10 total cpu time :  7378.8 secs   av.it.:  19.3
      thresh= 8.796E-09 alpha_mix =  0.300 |ddv_scf|^2 =  1.406E-15

      iter #  11 total cpu time :  7388.0 secs   av.it.:  18.5
      thresh= 3.749E-09 alpha_mix =  0.300 |ddv_scf|^2 =  2.570E-16

     End of self-consistent calculation

     Convergence has been achieved 


     Representation #   4 mode #   4

     Self-consistent Calculation

      iter #   1 total cpu time :  7393.6 secs   av.it.:   9.4
      thresh= 1.000E-02 alpha_mix =  0.300 |ddv_scf|^2 =  7.069E-08

      iter #   2 total cpu time :  7402.9 secs   av.it.:  18.6
      thresh= 2.659E-05 alpha_mix =  0.300 |ddv_scf|^2 =  4.932E-09

      iter #   3 total cpu time :  7412.2 secs   av.it.:  18.7
      thresh= 7.023E-06 alpha_mix =  0.300 |ddv_scf|^2 =  4.318E-10

      iter #   4 total cpu time :  7421.6 secs   av.it.:  18.9
      thresh= 2.078E-06 alpha_mix =  0.300 |ddv_scf|^2 =  6.283E-11

      iter #   5 total cpu time :  7431.3 secs   av.it.:  19.7
      thresh= 7.927E-07 alpha_mix =  0.300 |ddv_scf|^2 =  2.183E-12

      iter #   6 total cpu time :  7440.8 secs   av.it.:  19.0
      thresh= 1.477E-07 alpha_mix =  0.300 |ddv_scf|^2 =  5.365E-13

      iter #   7 total cpu time :  7450.5 secs   av.it.:  19.7
      thresh= 7.325E-08 alpha_mix =  0.300 |ddv_scf|^2 =  6.703E-14

      iter #   8 total cpu time :  7459.8 secs   av.it.:  18.8
      thresh= 2.589E-08 alpha_mix =  0.300 |ddv_scf|^2 =  1.603E-14

      iter #   9 total cpu time :  7469.3 secs   av.it.:  19.1
      thresh= 1.266E-08 alpha_mix =  0.300 |ddv_scf|^2 =  4.465E-16

     End of self-consistent calculation

     Convergence has been achieved 


     Representation #   5 mode #   5

     Self-consistent Calculation

      iter #   1 total cpu time :  7475.8 secs   av.it.:  11.5
      thresh= 1.000E-02 alpha_mix =  0.300 |ddv_scf|^2 =  1.616E-06

      iter #   2 total cpu time :  7485.0 secs   av.it.:  18.6
      thresh= 1.271E-04 alpha_mix =  0.300 |ddv_scf|^2 =  3.797E-08

      iter #   3 total cpu time :  7494.3 secs   av.it.:  18.9
      thresh= 1.949E-05 alpha_mix =  0.300 |ddv_scf|^2 =  5.042E-09

      iter #   4 total cpu time :  7503.7 secs   av.it.:  18.9
      thresh= 7.100E-06 alpha_mix =  0.300 |ddv_scf|^2 =  3.678E-10

      iter #   5 total cpu time :  7513.4 secs   av.it.:  19.7
      thresh= 1.918E-06 alpha_mix =  0.300 |ddv_scf|^2 =  2.503E-11

      iter #   6 total cpu time :  7523.0 secs   av.it.:  19.7
      thresh= 5.003E-07 alpha_mix =  0.300 |ddv_scf|^2 =  5.899E-12

      iter #   7 total cpu time :  7532.7 secs   av.it.:  19.7
      thresh= 2.429E-07 alpha_mix =  0.300 |ddv_scf|^2 =  5.904E-13

      iter #   8 total cpu time :  7542.5 secs   av.it.:  20.2
      thresh= 7.684E-08 alpha_mix =  0.300 |ddv_scf|^2 =  2.986E-14

      iter #   9 total cpu time :  7552.3 secs   av.it.:  20.1
      thresh= 1.728E-08 alpha_mix =  0.300 |ddv_scf|^2 =  3.557E-15

      iter #  10 total cpu time :  7562.2 secs   av.it.:  19.9
      thresh= 5.964E-09 alpha_mix =  0.300 |ddv_scf|^2 =  3.382E-16

     End of self-consistent calculation

     Convergence has been achieved 


     Representation #   6 mode #   6

     Self-consistent Calculation

      iter #   1 total cpu time :  7567.7 secs   av.it.:   9.0
      thresh= 1.000E-02 alpha_mix =  0.300 |ddv_scf|^2 =  7.442E-08

      iter #   2 total cpu time :  7576.9 secs   av.it.:  18.4
      thresh= 2.728E-05 alpha_mix =  0.300 |ddv_scf|^2 =  7.333E-09

      iter #   3 total cpu time :  7586.3 secs   av.it.:  18.8
      thresh= 8.563E-06 alpha_mix =  0.300 |ddv_scf|^2 =  1.166E-10

      iter #   4 total cpu time :  7595.9 secs   av.it.:  19.7
      thresh= 1.080E-06 alpha_mix =  0.300 |ddv_scf|^2 =  3.386E-12

      iter #   5 total cpu time :  7605.3 secs   av.it.:  19.1
      thresh= 1.840E-07 alpha_mix =  0.300 |ddv_scf|^2 =  3.942E-13

      iter #   6 total cpu time :  7614.6 secs   av.it.:  18.9
      thresh= 6.279E-08 alpha_mix =  0.300 |ddv_scf|^2 =  7.647E-14

      iter #   7 total cpu time :  7624.3 secs   av.it.:  19.8
      thresh= 2.765E-08 alpha_mix =  0.300 |ddv_scf|^2 =  2.223E-15

      iter #   8 total cpu time :  7633.6 secs   av.it.:  18.7
      thresh= 4.715E-09 alpha_mix =  0.300 |ddv_scf|^2 =  6.110E-16

     End of self-consistent calculation

     Convergence has been achieved 


     Representation #   7 mode #   7

     Self-consistent Calculation

      iter #   1 total cpu time :  7639.8 secs   av.it.:  10.9
      thresh= 1.000E-02 alpha_mix =  0.300 |ddv_scf|^2 =  5.717E-07

      iter #   2 total cpu time :  7649.1 secs   av.it.:  18.8
      thresh= 7.561E-05 alpha_mix =  0.300 |ddv_scf|^2 =  4.246E-08

      iter #   3 total cpu time :  7658.6 secs   av.it.:  19.4
      thresh= 2.061E-05 alpha_mix =  0.300 |ddv_scf|^2 =  1.767E-09

      iter #   4 total cpu time :  7668.3 secs   av.it.:  20.0
      thresh= 4.204E-06 alpha_mix =  0.300 |ddv_scf|^2 =  4.259E-11

      iter #   5 total cpu time :  7678.0 secs   av.it.:  19.6
      thresh= 6.526E-07 alpha_mix =  0.300 |ddv_scf|^2 =  5.386E-12

      iter #   6 total cpu time :  7687.8 secs   av.it.:  19.9
      thresh= 2.321E-07 alpha_mix =  0.300 |ddv_scf|^2 =  2.102E-13

      iter #   7 total cpu time :  7697.4 secs   av.it.:  19.7
      thresh= 4.585E-08 alpha_mix =  0.300 |ddv_scf|^2 =  3.945E-14

      iter #   8 total cpu time :  7707.4 secs   av.it.:  20.5
      thresh= 1.986E-08 alpha_mix =  0.300 |ddv_scf|^2 =  6.646E-16

     End of self-consistent calculation

     Convergence has been achieved 


     Representation #   8 mode #   8

     Self-consistent Calculation

      iter #   1 total cpu time :  7713.0 secs   av.it.:   9.3
      thresh= 1.000E-02 alpha_mix =  0.300 |ddv_scf|^2 =  8.705E-08

      iter #   2 total cpu time :  7722.1 secs   av.it.:  18.5
      thresh= 2.950E-05 alpha_mix =  0.300 |ddv_scf|^2 =  6.376E-09

      iter #   3 total cpu time :  7731.4 secs   av.it.:  18.8
      thresh= 7.985E-06 alpha_mix =  0.300 |ddv_scf|^2 =  1.586E-10

      iter #   4 total cpu time :  7741.1 secs   av.it.:  19.7
      thresh= 1.259E-06 alpha_mix =  0.300 |ddv_scf|^2 =  6.865E-12

      iter #   5 total cpu time :  7750.6 secs   av.it.:  19.3
      thresh= 2.620E-07 alpha_mix =  0.300 |ddv_scf|^2 =  6.291E-13

      iter #   6 total cpu time :  7760.2 secs   av.it.:  19.6
      thresh= 7.932E-08 alpha_mix =  0.300 |ddv_scf|^2 =  6.961E-14

      iter #   7 total cpu time :  7769.8 secs   av.it.:  19.6
      thresh= 2.638E-08 alpha_mix =  0.300 |ddv_scf|^2 =  1.162E-14

      iter #   8 total cpu time :  7779.6 secs   av.it.:  20.3
      thresh= 1.078E-08 alpha_mix =  0.300 |ddv_scf|^2 =  1.771E-16

     End of self-consistent calculation

     Convergence has been achieved 


     Representation #   9 mode #   9

     Self-consistent Calculation

      iter #   1 total cpu time :  7785.1 secs   av.it.:   8.9
      thresh= 1.000E-02 alpha_mix =  0.300 |ddv_scf|^2 =  1.646E-08

      iter #   2 total cpu time :  7794.2 secs   av.it.:  18.3
      thresh= 1.283E-05 alpha_mix =  0.300 |ddv_scf|^2 =  3.051E-09

      iter #   3 total cpu time :  7803.6 secs   av.it.:  19.0
      thresh= 5.523E-06 alpha_mix =  0.300 |ddv_scf|^2 =  1.761E-10

      iter #   4 total cpu time :  7812.9 secs   av.it.:  18.9
      thresh= 1.327E-06 alpha_mix =  0.300 |ddv_scf|^2 =  2.563E-11

      iter #   5 total cpu time :  7822.4 secs   av.it.:  19.4
      thresh= 5.062E-07 alpha_mix =  0.300 |ddv_scf|^2 =  4.239E-13

      iter #   6 total cpu time :  7831.5 secs   av.it.:  18.1
      thresh= 6.511E-08 alpha_mix =  0.300 |ddv_scf|^2 =  1.514E-13

      iter #   7 total cpu time :  7840.6 secs   av.it.:  18.3
      thresh= 3.891E-08 alpha_mix =  0.300 |ddv_scf|^2 =  4.144E-15

      iter #   8 total cpu time :  7849.7 secs   av.it.:  18.3
      thresh= 6.437E-09 alpha_mix =  0.300 |ddv_scf|^2 =  3.522E-16

     End of self-consistent calculation

     Convergence has been achieved 

     Number of q in the star =    2
     List of q in the star:
          1  -0.333333000  -0.577350000   0.000000000
          2   0.333333000  -0.577350000  -0.000000000

     Diagonalizing the dynamical matrix

     q = (   -0.333333000  -0.577350000   0.000000000 ) 

 **************************************************************************
     freq (    1) =       5.333671 [THz] =     177.912104 [cm-1]
     freq (    2) =       5.514021 [THz] =     183.927927 [cm-1]
     freq (    3) =       6.993683 [THz] =     233.284162 [cm-1]
     freq (    4) =       9.677083 [THz] =     322.792734 [cm-1]
     freq (    5) =      10.054756 [THz] =     335.390575 [cm-1]
     freq (    6) =      10.060002 [THz] =     335.565545 [cm-1]
     freq (    7) =      11.250564 [THz] =     375.278431 [cm-1]
     freq (    8) =      11.451890 [THz] =     381.993949 [cm-1]
     freq (    9) =      11.837925 [THz] =     394.870690 [cm-1]
 **************************************************************************

     Mode symmetry, C_3h (-6)   point group:

     freq (   1-   1) =        177.9  [cm-1]   --> E''                
     freq (   2-   2) =        183.9  [cm-1]   --> E'*                
     freq (   3-   3) =        233.3  [cm-1]   --> A'                 
     freq (   4-   4) =        322.8  [cm-1]   --> E''*               
     freq (   5-   5) =        335.4  [cm-1]   --> E'                 
     freq (   6-   6) =        335.6  [cm-1]   --> A''                
     freq (   7-   7) =        375.3  [cm-1]   --> E''                
     freq (   8-   8) =        382.0  [cm-1]   --> A'                 
     freq (   9-   9) =        394.9  [cm-1]   --> E'*                

     PHONON       :      2h 4m CPU      2h10m WALL

     INITIALIZATION: 
     phq_setup    :      0.73s CPU      0.76s WALL (       6 calls)
     phq_init     :      4.37s CPU      4.52s WALL (       6 calls)

     phq_init     :      4.37s CPU      4.52s WALL (       6 calls)
     set_drhoc    :      0.01s CPU      0.01s WALL (      16 calls)
     init_vloc    :      0.06s CPU      0.06s WALL (       7 calls)
     init_us_1    :      0.00s CPU      0.00s WALL (       7 calls)
     init_us_2    :      7.46s CPU      7.91s WALL (  121055 calls)

     DYNAMICAL MATRIX:
     dynmat0      :      3.31s CPU      3.36s WALL (       5 calls)
     dynmat_us    :      3.24s CPU      3.27s WALL (       5 calls)
     d2ionq       :      0.02s CPU      0.02s WALL (       5 calls)
     dynmatcc     :      0.05s CPU      0.05s WALL (       5 calls)
     phqscf       :   7295.85s CPU   7683.92s WALL (       6 calls)
     dynmatrix    :      0.03s CPU      0.05s WALL (       6 calls)

     phqscf       :   7295.85s CPU   7683.92s WALL (       6 calls)
     solve_linter :   7289.23s CPU   7676.73s WALL (      47 calls)
     sth_kernel   :   7116.45s CPU   7475.95s WALL (     461 calls)
     h_prec       :      8.28s CPU      8.75s WALL (   97760 calls)
     apply_dpot_b :    266.88s CPU    282.06s WALL (   88409 calls)
     ortho        :      9.46s CPU     10.07s WALL (   97760 calls)
     cgsolve      :   6521.54s CPU   6844.20s WALL (   97760 calls)
     incdrhoscf   :    287.29s CPU    305.61s WALL (   97760 calls)
                                        0.00s GPU  (   97760 calls)
     dv_of_drho   :      2.95s CPU      3.30s WALL (     461 calls)
     mix_pot      :      4.91s CPU      7.72s WALL (     461 calls)
     drhodv       :      6.53s CPU      6.70s WALL (      47 calls)
     psymdvscf    :    115.80s CPU    130.96s WALL (     461 calls)

     dvqpsi_us    :     39.31s CPU     41.32s WALL (    9522 calls)
                                        0.00s GPU  (    9522 calls)
     dvqpsi_us_on :      7.07s CPU      7.33s WALL (    9522 calls)

     add_vuspsi   :     96.96s CPU    102.48s WALL ( 2603995 calls)


      General routines
     calbec       :    547.61s CPU    576.38s WALL ( 5209140 calls)
     fft          :      7.37s CPU      8.06s WALL (    7452 calls)
     ffts         :      4.69s CPU      4.97s WALL (   10879 calls)
     fftw         :   5714.91s CPU   6002.56s WALL (52186450 calls)
     davcio       :     16.30s CPU     20.42s WALL (  517454 calls)
     write_rec    :      0.58s CPU      5.38s WALL (     508 calls)

      Additional routines
     ch_psi       :   6313.23s CPU   6624.47s WALL ( 2556173 calls)
     last         :    504.69s CPU    530.15s WALL ( 2556173 calls)
     Hesh         :      6.29s CPU      6.69s WALL ( 2556173 calls)
     ch_psi_all_k :    487.73s CPU    512.33s WALL ( 2556173 calls)
                                        0.00s GPU  ( 2556173 calls)
     ch_psi_calbe :    269.05s CPU    281.67s WALL ( 2556173 calls)
                                        0.00s GPU  ( 2556173 calls)
     h_psi_bgrp   :   5890.16s CPU   6180.10s WALL ( 2603995 calls)
     h_psi        :   5883.32s CPU   6173.09s WALL ( 2603995 calls)
     h_psi:pot    :   5871.31s CPU   6160.38s WALL ( 2603995 calls)
     h_psi:calbec :    289.18s CPU    303.22s WALL ( 2603995 calls)
     s_psi_bgrp   :     10.85s CPU     11.51s WALL ( 5210106 calls)


     PHONON       :      2h 4m CPU      2h10m WALL


   This run was terminated on:   0:36:33  25Feb2026            

=------------------------------------------------------------------------------=
   JOB DONE.
=------------------------------------------------------------------------------=
