
     Program PWSCF v.7.5 starts on  5Mar2026 at 17:22:15 
        Git branch: HEAD
        Last git commit: 770a0b2d12928a67048e2f3da8d10d057e52179e
        Last git commit date: Tue Aug 19 09:57:12 2025 +0000
        Last git commit subject: Merge branch 'QE-7.5-RC' into 'master'

     This program is part of the open-source Quantum ESPRESSO suite
     for quantum simulation of materials; please cite
         "P. Giannozzi et al., J. Phys.:Condens. Matter 21 395502 (2009);
         "P. Giannozzi et al., J. Phys.:Condens. Matter 29 465901 (2017);
         "P. Giannozzi et al., J. Chem. Phys. 152 154105 (2020);
          URL http://www.quantum-espresso.org", 
     in publications or presentations arising from this work. More details at
     http://www.quantum-espresso.org/quote

     Parallel version (MPI), running on    64 processors

     MPI processes distributed on     4 nodes
     240955 MiB available memory on the printing compute node when the environment starts

     Waiting for input...
     Reading input from standard input

     Current dimensions of program PWSCF are:
     Max number of different atomic species (ntypx) = 10
     Max number of k-points (npk) =  40000
     Max angular momentum in pseudopotentials (lmaxx) =  4

     R & G space division:  proc/nbgrp/npool/nimage =      64
     Subspace diagonalization in iterative solution of the eigenvalue problem:
     a serial algorithm will be used


     Parallelization info
     --------------------
     sticks:   dense  smooth     PW     G-vecs:    dense   smooth      PW
     Min          30      15      4                 7300     2568     388
     Max          31      17      5                 7337     2593     413
     Sum        1945     967    283               468457   165261   25403

     Using Slab Decomposition



     bravais-lattice index     =            4
     lattice parameter (alat)  =       5.9477  a.u.
     unit-cell volume          =    1225.4506 (a.u.)^3
     number of atoms/cell      =            3
     number of atomic types    =            2
     number of electrons       =        26.00
     number of Kohn-Sham states=           13
     kinetic-energy cutoff     =     100.0000  Ry
     charge density cutoff     =     800.0000  Ry
     scf convergence threshold =      1.0E-15
     mixing beta               =       0.3000
     number of iterations used =            8  local-TF  mixing
     energy convergence thresh.=      1.0E-10
     force convergence thresh. =      1.0E-07
     Exchange-correlation= PBESOL
                           (   1   4  10   8   0   0   0)
     nstep                     =           50


     celldm(1)=   5.947749  celldm(2)=   0.000000  celldm(3)=   6.725234
     celldm(4)=   0.000000  celldm(5)=   0.000000  celldm(6)=   0.000000

     crystal axes: (cart. coord. in units of alat)
               a(1) = (   1.000000   0.000000   0.000000 )  
               a(2) = (  -0.500000   0.866025   0.000000 )  
               a(3) = (   0.000000   0.000000   6.725234 )  

     reciprocal axes: (cart. coord. in units 2 pi/alat)
               b(1) = (  1.000000  0.577350 -0.000000 )  
               b(2) = (  0.000000  1.154701  0.000000 )  
               b(3) = (  0.000000 -0.000000  0.148694 )  


     PseudoPot. # 1 for Mo read from file:
     ../pseudo/Mo.pbesol.dojo.upf
     MD5 check sum: c40353276b9086539cda6b9e5a66907b
     Pseudo is Norm-conserving + core correction, Zval = 14.0
     Generated using ONCVPSP code by D. R. Hamann
     Using radial grid of 1640 points,  6 beta functions with: 
                l(1) =   0
                l(2) =   0
                l(3) =   1
                l(4) =   1
                l(5) =   2
                l(6) =   2

     PseudoPot. # 2 for S  read from file:
     ../pseudo/S.pbesol.dojo.upf
     MD5 check sum: 501737efeeef1fb1c631cda521d4e019
     Pseudo is Norm-conserving + core correction, Zval =  6.0
     Generated using ONCVPSP code by D. R. Hamann
     Using radial grid of 1146 points,  6 beta functions with: 
                l(1) =   0
                l(2) =   0
                l(3) =   1
                l(4) =   1
                l(5) =   2
                l(6) =   2

     atomic species   valence    mass     pseudopotential
     Mo               14.00    95.95000     Mo( 1.00)
     S                 6.00    32.06500     S ( 1.00)

     12 Sym. Ops. (no inversion) found


                                    s                        frac. trans.

      isym =  1     identity                                     

 cryst.   s( 1) = (     1          0          0      )
                  (     0          1          0      )
                  (     0          0          1      )

 cart.    s( 1) = (  1.0000000  0.0000000  0.0000000 )
                  (  0.0000000  1.0000000  0.0000000 )
                  (  0.0000000  0.0000000  1.0000000 )


      isym =  2     180 deg rotation - cart. axis [0,1,0]        

 cryst.   s( 2) = (    -1          0          0      )
                  (     1          1          0      )
                  (     0          0         -1      )

 cart.    s( 2) = ( -1.0000000  0.0000000  0.0000000 )
                  (  0.0000000  1.0000000  0.0000000 )
                  (  0.0000000  0.0000000 -1.0000000 )


      isym =  3     120 deg rotation - cryst. axis [0,0,1]       

 cryst.   s( 3) = (     0          1          0      )
                  (    -1         -1          0      )
                  (     0          0          1      )

 cart.    s( 3) = ( -0.5000000 -0.8660254  0.0000000 )
                  (  0.8660254 -0.5000000  0.0000000 )
                  (  0.0000000  0.0000000  1.0000000 )


      isym =  4     120 deg rotation - cryst. axis [0,0,-1]      

 cryst.   s( 4) = (    -1         -1          0      )
                  (     1          0          0      )
                  (     0          0          1      )

 cart.    s( 4) = ( -0.5000000  0.8660254  0.0000000 )
                  ( -0.8660254 -0.5000000  0.0000000 )
                  (  0.0000000  0.0000000  1.0000000 )


      isym =  5     180 deg rotation - cryst. axis [1,-1,0]      

 cryst.   s( 5) = (     0         -1          0      )
                  (    -1          0          0      )
                  (     0          0         -1      )

 cart.    s( 5) = (  0.5000000 -0.8660254  0.0000000 )
                  ( -0.8660254 -0.5000000  0.0000000 )
                  (  0.0000000  0.0000000 -1.0000000 )


      isym =  6     180 deg rotation - cryst. axis [2,1,0]       

 cryst.   s( 6) = (     1          1          0      )
                  (     0         -1          0      )
                  (     0          0         -1      )

 cart.    s( 6) = (  0.5000000  0.8660254  0.0000000 )
                  (  0.8660254 -0.5000000  0.0000000 )
                  (  0.0000000  0.0000000 -1.0000000 )


      isym =  7     inv. 180 deg rotation - cart. axis [0,0,1]   

 cryst.   s( 7) = (     1          0          0      )
                  (     0          1          0      )
                  (     0          0         -1      )

 cart.    s( 7) = (  1.0000000  0.0000000  0.0000000 )
                  (  0.0000000  1.0000000  0.0000000 )
                  (  0.0000000  0.0000000 -1.0000000 )


      isym =  8     inv. 180 deg rotation - cart. axis [1,0,0]   

 cryst.   s( 8) = (    -1          0          0      )
                  (     1          1          0      )
                  (     0          0          1      )

 cart.    s( 8) = ( -1.0000000  0.0000000  0.0000000 )
                  (  0.0000000  1.0000000  0.0000000 )
                  (  0.0000000  0.0000000  1.0000000 )


      isym =  9     inv.  60 deg rotation - cryst. axis [0,0,1]  

 cryst.   s( 9) = (    -1         -1          0      )
                  (     1          0          0      )
                  (     0          0         -1      )

 cart.    s( 9) = ( -0.5000000  0.8660254  0.0000000 )
                  ( -0.8660254 -0.5000000  0.0000000 )
                  (  0.0000000  0.0000000 -1.0000000 )


      isym = 10     inv.  60 deg rotation - cryst. axis [0,0,-1] 

 cryst.   s(10) = (     0          1          0      )
                  (    -1         -1          0      )
                  (     0          0         -1      )

 cart.    s(10) = ( -0.5000000 -0.8660254  0.0000000 )
                  (  0.8660254 -0.5000000  0.0000000 )
                  (  0.0000000  0.0000000 -1.0000000 )


      isym = 11     inv. 180 deg rotation - cryst. axis [0,1,0]  

 cryst.   s(11) = (     1          1          0      )
                  (     0         -1          0      )
                  (     0          0          1      )

 cart.    s(11) = (  0.5000000  0.8660254  0.0000000 )
                  (  0.8660254 -0.5000000  0.0000000 )
                  (  0.0000000  0.0000000  1.0000000 )


      isym = 12     inv. 180 deg rotation - cryst. axis [1,1,0]  

 cryst.   s(12) = (     0         -1          0      )
                  (    -1          0          0      )
                  (     0          0          1      )

 cart.    s(12) = (  0.5000000 -0.8660254  0.0000000 )
                  ( -0.8660254 -0.5000000  0.0000000 )
                  (  0.0000000  0.0000000  1.0000000 )


     point group D_3h (-62m)
     there are  6 classes
     the character table:

       E     2C3   3C2   s_h   2S3   3s_v 
A'_1   1.00  1.00  1.00  1.00  1.00  1.00
A'_2   1.00  1.00 -1.00  1.00  1.00 -1.00
E'     2.00 -1.00  0.00  2.00 -1.00  0.00
A''1   1.00  1.00  1.00 -1.00 -1.00 -1.00
A''2   1.00  1.00 -1.00 -1.00 -1.00  1.00
E''    2.00 -1.00  0.00 -2.00  1.00  0.00

     the symmetry operations in each class and the name of the first element:

     E        1
          identity                                               
     2C3      3    4
          120 deg rotation - cryst. axis [0,0,1]                 
     3C2      2    6    5
          180 deg rotation - cart. axis [0,1,0]                  
     s_h      7
          inv. 180 deg rotation - cart. axis [0,0,1]             
     2S3      9   10
          inv.  60 deg rotation - cryst. axis [0,0,1]            
     3s_v     8   11   12
          inv. 180 deg rotation - cart. axis [1,0,0]             

   Cartesian axes

     site n.     atom                  positions (alat units)
         1        Mo     tau(   1) = (  -0.0000000   0.5773503   0.0000000  )
         2        S      tau(   2) = (   0.5000000   0.2886751   0.4951993  )
         3        S      tau(   3) = (   0.5000000   0.2886751  -0.4951993  )

     Fixed atoms
     site n.  direction
         1    1   1   1
         2    0   0   1
         3    0   0   1

   Crystallographic axes

     site n.     atom                  positions (cryst. coord.)
         1        Mo     tau(   1) = (  0.3333333  0.6666667  0.0000000  )
         2        S      tau(   2) = (  0.6666667  0.3333333  0.0736330  )
         3        S      tau(   3) = (  0.6666667  0.3333333 -0.0736330  )

     number of k points=    37
                       cart. coord. in units 2pi/alat
        k(    1) = (   0.0000000   0.0000000   0.0000000), wk =   0.0061728
        k(    2) = (   0.0000000   0.0641500   0.0000000), wk =   0.0370370
        k(    3) = (   0.0000000   0.1283001   0.0000000), wk =   0.0370370
        k(    4) = (   0.0000000   0.1924501   0.0000000), wk =   0.0370370
        k(    5) = (   0.0000000   0.2566001   0.0000000), wk =   0.0370370
        k(    6) = (   0.0000000   0.3207501   0.0000000), wk =   0.0370370
        k(    7) = (   0.0000000   0.3849002   0.0000000), wk =   0.0370370
        k(    8) = (   0.0000000   0.4490502   0.0000000), wk =   0.0370370
        k(    9) = (   0.0000000   0.5132002   0.0000000), wk =   0.0370370
        k(   10) = (   0.0000000  -0.5773503   0.0000000), wk =   0.0185185
        k(   11) = (   0.0555556   0.0962250   0.0000000), wk =   0.0370370
        k(   12) = (   0.0555556   0.1603751   0.0000000), wk =   0.0740741
        k(   13) = (   0.0555556   0.2245251   0.0000000), wk =   0.0740741
        k(   14) = (   0.0555556   0.2886751   0.0000000), wk =   0.0740741
        k(   15) = (   0.0555556   0.3528252   0.0000000), wk =   0.0740741
        k(   16) = (   0.0555556   0.4169752   0.0000000), wk =   0.0740741
        k(   17) = (   0.0555556   0.4811252   0.0000000), wk =   0.0740741
        k(   18) = (   0.0555556   0.5452753   0.0000000), wk =   0.0740741
        k(   19) = (   0.1111111   0.1924501   0.0000000), wk =   0.0370370
        k(   20) = (   0.1111111   0.2566001   0.0000000), wk =   0.0740741
        k(   21) = (   0.1111111   0.3207501   0.0000000), wk =   0.0740741
        k(   22) = (   0.1111111   0.3849002   0.0000000), wk =   0.0740741
        k(   23) = (   0.1111111   0.4490502   0.0000000), wk =   0.0740741
        k(   24) = (   0.1111111   0.5132002   0.0000000), wk =   0.0740741
        k(   25) = (   0.1111111   0.5773503   0.0000000), wk =   0.0370370
        k(   26) = (   0.1666667   0.2886751   0.0000000), wk =   0.0370370
        k(   27) = (   0.1666667   0.3528252   0.0000000), wk =   0.0740741
        k(   28) = (   0.1666667   0.4169752   0.0000000), wk =   0.0740741
        k(   29) = (   0.1666667   0.4811252   0.0000000), wk =   0.0740741
        k(   30) = (   0.1666667   0.5452753   0.0000000), wk =   0.0740741
        k(   31) = (   0.2222222   0.3849002   0.0000000), wk =   0.0370370
        k(   32) = (   0.2222222   0.4490502   0.0000000), wk =   0.0740741
        k(   33) = (   0.2222222   0.5132002   0.0000000), wk =   0.0740741
        k(   34) = (   0.2222222   0.5773503   0.0000000), wk =   0.0370370
        k(   35) = (   0.2777778   0.4811252   0.0000000), wk =   0.0370370
        k(   36) = (   0.2777778   0.5452753   0.0000000), wk =   0.0740741
        k(   37) = (   0.3333333   0.5773503   0.0000000), wk =   0.0123457

                       cryst. coord.
        k(    1) = (   0.0000000   0.0000000   0.0000000), wk =   0.0061728
        k(    2) = (   0.0000000   0.0555556   0.0000000), wk =   0.0370370
        k(    3) = (   0.0000000   0.1111111   0.0000000), wk =   0.0370370
        k(    4) = (   0.0000000   0.1666667   0.0000000), wk =   0.0370370
        k(    5) = (   0.0000000   0.2222222   0.0000000), wk =   0.0370370
        k(    6) = (   0.0000000   0.2777778   0.0000000), wk =   0.0370370
        k(    7) = (   0.0000000   0.3333333   0.0000000), wk =   0.0370370
        k(    8) = (   0.0000000   0.3888889   0.0000000), wk =   0.0370370
        k(    9) = (   0.0000000   0.4444444   0.0000000), wk =   0.0370370
        k(   10) = (   0.0000000  -0.5000000   0.0000000), wk =   0.0185185
        k(   11) = (   0.0555556   0.0555556   0.0000000), wk =   0.0370370
        k(   12) = (   0.0555556   0.1111111   0.0000000), wk =   0.0740741
        k(   13) = (   0.0555556   0.1666667   0.0000000), wk =   0.0740741
        k(   14) = (   0.0555556   0.2222222   0.0000000), wk =   0.0740741
        k(   15) = (   0.0555556   0.2777778   0.0000000), wk =   0.0740741
        k(   16) = (   0.0555556   0.3333333   0.0000000), wk =   0.0740741
        k(   17) = (   0.0555556   0.3888889   0.0000000), wk =   0.0740741
        k(   18) = (   0.0555556   0.4444444   0.0000000), wk =   0.0740741
        k(   19) = (   0.1111111   0.1111111   0.0000000), wk =   0.0370370
        k(   20) = (   0.1111111   0.1666667   0.0000000), wk =   0.0740741
        k(   21) = (   0.1111111   0.2222222   0.0000000), wk =   0.0740741
        k(   22) = (   0.1111111   0.2777778   0.0000000), wk =   0.0740741
        k(   23) = (   0.1111111   0.3333333   0.0000000), wk =   0.0740741
        k(   24) = (   0.1111111   0.3888889   0.0000000), wk =   0.0740741
        k(   25) = (   0.1111111   0.4444444   0.0000000), wk =   0.0370370
        k(   26) = (   0.1666667   0.1666667   0.0000000), wk =   0.0370370
        k(   27) = (   0.1666667   0.2222222   0.0000000), wk =   0.0740741
        k(   28) = (   0.1666667   0.2777778   0.0000000), wk =   0.0740741
        k(   29) = (   0.1666667   0.3333333   0.0000000), wk =   0.0740741
        k(   30) = (   0.1666667   0.3888889   0.0000000), wk =   0.0740741
        k(   31) = (   0.2222222   0.2222222   0.0000000), wk =   0.0370370
        k(   32) = (   0.2222222   0.2777778   0.0000000), wk =   0.0740741
        k(   33) = (   0.2222222   0.3333333   0.0000000), wk =   0.0740741
        k(   34) = (   0.2222222   0.3888889   0.0000000), wk =   0.0370370
        k(   35) = (   0.2777778   0.2777778   0.0000000), wk =   0.0370370
        k(   36) = (   0.2777778   0.3333333   0.0000000), wk =   0.0740741
        k(   37) = (   0.3333333   0.3333333   0.0000000), wk =   0.0123457

     Dense  grid:   468457 G-vectors     FFT dimensions: (  60,  60, 420)

     Smooth grid:   165261 G-vectors     FFT dimensions: (  48,  48, 300)

     Dynamical RAM for                 wfc:       0.06 MB

     Dynamical RAM for     wfc (w. buffer):       2.43 MB

     Dynamical RAM for           str. fact:       0.22 MB

     Dynamical RAM for           local pot:       0.00 MB

     Dynamical RAM for          nlocal pot:       0.27 MB

     Dynamical RAM for                qrad:       4.54 MB

     Dynamical RAM for          rho,v,vnew:       0.91 MB

     Dynamical RAM for               rhoin:       0.30 MB

     Dynamical RAM for            rho*nmix:       1.79 MB

     Dynamical RAM for           G-vectors:       0.44 MB

     Dynamical RAM for          h,s,v(r/c):       0.03 MB

     Dynamical RAM for          <psi|beta>:       0.01 MB

     Dynamical RAM for                 psi:       0.13 MB

     Dynamical RAM for                hpsi:       0.13 MB

     Dynamical RAM for      wfcinit/wfcrot:       0.13 MB

     Estimated static dynamical RAM per process >      10.41 MB

     Estimated max dynamical RAM per process >      15.30 MB

     Estimated total dynamical RAM >     978.96 MB
     Cannot read rho : file not found

     Initial potential from superposition of free atoms

     starting charge      25.9986, renormalised to      26.0000

     negative rho (up, down):  4.153E-06 0.000E+00
     Starting wfcs are   18 randomized atomic wfcs

     total cpu time spent up to now is       20.5 secs

     per-process dynamical memory:    65.4 Mb

     Self-consistent Calculation

     iteration #  1     ecut=   100.00 Ry     beta= 0.30
     Davidson diagonalization with overlap

---- Real-time Memory Report at c_bands before calling an iterative solver
            80 MiB given to the printing process from OS
            63 MiB allocation reported by mallinfo(arena+hblkhd)
        240621 MiB available memory on the node where the printing process lives
------------------
     ethr =  1.00E-05,  avg # of iterations = 10.2

     total cpu time spent up to now is       24.0 secs

     total energy              =    -184.86147194 Ry
     estimated scf accuracy    <       0.42485278 Ry

     iteration #  2     ecut=   100.00 Ry     beta= 0.30
     Davidson diagonalization with overlap

---- Real-time Memory Report at c_bands before calling an iterative solver
            86 MiB given to the printing process from OS
            66 MiB allocation reported by mallinfo(arena+hblkhd)
        240569 MiB available memory on the node where the printing process lives
------------------
     ethr =  1.63E-03,  avg # of iterations =  1.0

     negative rho (up, down):  4.918E-07 0.000E+00

     total cpu time spent up to now is       25.1 secs

     total energy              =    -184.77908442 Ry
     estimated scf accuracy    <       0.19639839 Ry

     iteration #  3     ecut=   100.00 Ry     beta= 0.30
     Davidson diagonalization with overlap

---- Real-time Memory Report at c_bands before calling an iterative solver
            86 MiB given to the printing process from OS
            66 MiB allocation reported by mallinfo(arena+hblkhd)
        240567 MiB available memory on the node where the printing process lives
------------------
     ethr =  7.55E-04,  avg # of iterations =  2.7

     negative rho (up, down):  7.342E-07 0.000E+00

     total cpu time spent up to now is       26.5 secs

     total energy              =    -184.84276502 Ry
     estimated scf accuracy    <       0.04497748 Ry

     iteration #  4     ecut=   100.00 Ry     beta= 0.30
     Davidson diagonalization with overlap

---- Real-time Memory Report at c_bands before calling an iterative solver
            87 MiB given to the printing process from OS
            67 MiB allocation reported by mallinfo(arena+hblkhd)
        240566 MiB available memory on the node where the printing process lives
------------------
     ethr =  1.73E-04,  avg # of iterations =  2.3

     total cpu time spent up to now is       27.7 secs

     total energy              =    -184.84061901 Ry
     estimated scf accuracy    <       0.06413081 Ry

     iteration #  5     ecut=   100.00 Ry     beta= 0.30
     Davidson diagonalization with overlap

---- Real-time Memory Report at c_bands before calling an iterative solver
            87 MiB given to the printing process from OS
            67 MiB allocation reported by mallinfo(arena+hblkhd)
        240565 MiB available memory on the node where the printing process lives
------------------
     ethr =  1.73E-04,  avg # of iterations =  1.0

     total cpu time spent up to now is       28.8 secs

     total energy              =    -184.83550541 Ry
     estimated scf accuracy    <       0.05660036 Ry

     iteration #  6     ecut=   100.00 Ry     beta= 0.30
     Davidson diagonalization with overlap

---- Real-time Memory Report at c_bands before calling an iterative solver
            87 MiB given to the printing process from OS
            67 MiB allocation reported by mallinfo(arena+hblkhd)
        240564 MiB available memory on the node where the printing process lives
------------------
     ethr =  1.73E-04,  avg # of iterations =  1.1

     total cpu time spent up to now is       29.9 secs

     total energy              =    -184.83211066 Ry
     estimated scf accuracy    <       0.03820244 Ry

     iteration #  7     ecut=   100.00 Ry     beta= 0.30
     Davidson diagonalization with overlap

---- Real-time Memory Report at c_bands before calling an iterative solver
            87 MiB given to the printing process from OS
            67 MiB allocation reported by mallinfo(arena+hblkhd)
        240563 MiB available memory on the node where the printing process lives
------------------
     ethr =  1.47E-04,  avg # of iterations =  1.1

     total cpu time spent up to now is       30.9 secs

     total energy              =    -184.82872524 Ry
     estimated scf accuracy    <       0.02077391 Ry

     iteration #  8     ecut=   100.00 Ry     beta= 0.30
     Davidson diagonalization with overlap

---- Real-time Memory Report at c_bands before calling an iterative solver
            87 MiB given to the printing process from OS
            67 MiB allocation reported by mallinfo(arena+hblkhd)
        240561 MiB available memory on the node where the printing process lives
------------------
     ethr =  7.99E-05,  avg # of iterations =  3.3

     total cpu time spent up to now is       32.3 secs

     total energy              =    -184.83097358 Ry
     estimated scf accuracy    <       0.00197291 Ry

     iteration #  9     ecut=   100.00 Ry     beta= 0.30
     Davidson diagonalization with overlap

---- Real-time Memory Report at c_bands before calling an iterative solver
            87 MiB given to the printing process from OS
            67 MiB allocation reported by mallinfo(arena+hblkhd)
        240561 MiB available memory on the node where the printing process lives
------------------
     ethr =  7.59E-06,  avg # of iterations =  4.7

     total cpu time spent up to now is       33.9 secs

     total energy              =    -184.83174998 Ry
     estimated scf accuracy    <       0.00038852 Ry

     iteration # 10     ecut=   100.00 Ry     beta= 0.30
     Davidson diagonalization with overlap

---- Real-time Memory Report at c_bands before calling an iterative solver
            88 MiB given to the printing process from OS
            67 MiB allocation reported by mallinfo(arena+hblkhd)
        240559 MiB available memory on the node where the printing process lives
------------------
     ethr =  1.49E-06,  avg # of iterations =  6.3

     total cpu time spent up to now is       36.1 secs

     total energy              =    -184.83090590 Ry
     estimated scf accuracy    <       0.00613620 Ry

     iteration # 11     ecut=   100.00 Ry     beta= 0.30
     Davidson diagonalization with overlap

---- Real-time Memory Report at c_bands before calling an iterative solver
            88 MiB given to the printing process from OS
            67 MiB allocation reported by mallinfo(arena+hblkhd)
        240557 MiB available memory on the node where the printing process lives
------------------
     ethr =  1.49E-06,  avg # of iterations =  5.9

     negative rho (up, down):  3.981E-05 0.000E+00

     total cpu time spent up to now is       38.2 secs

     total energy              =    -184.83181820 Ry
     estimated scf accuracy    <       0.00011567 Ry

     iteration # 12     ecut=   100.00 Ry     beta= 0.30
     Davidson diagonalization with overlap

---- Real-time Memory Report at c_bands before calling an iterative solver
            88 MiB given to the printing process from OS
            67 MiB allocation reported by mallinfo(arena+hblkhd)
        240557 MiB available memory on the node where the printing process lives
------------------
     ethr =  4.45E-07,  avg # of iterations =  1.2

     negative rho (up, down):  9.738E-04 0.000E+00

     total cpu time spent up to now is       39.4 secs

     total energy              =    -184.83184386 Ry
     estimated scf accuracy    <       0.00007348 Ry

     iteration # 13     ecut=   100.00 Ry     beta= 0.30
     Davidson diagonalization with overlap

---- Real-time Memory Report at c_bands before calling an iterative solver
            88 MiB given to the printing process from OS
            67 MiB allocation reported by mallinfo(arena+hblkhd)
        240563 MiB available memory on the node where the printing process lives
------------------
     ethr =  2.83E-07,  avg # of iterations =  6.8

     negative rho (up, down):  5.490E-04 0.000E+00

     total cpu time spent up to now is       41.6 secs

     total energy              =    -184.83179719 Ry
     estimated scf accuracy    <       0.00145891 Ry

     iteration # 14     ecut=   100.00 Ry     beta= 0.30
     Davidson diagonalization with overlap

---- Real-time Memory Report at c_bands before calling an iterative solver
            88 MiB given to the printing process from OS
            67 MiB allocation reported by mallinfo(arena+hblkhd)
        240562 MiB available memory on the node where the printing process lives
------------------
     ethr =  2.83E-07,  avg # of iterations =  5.3

     negative rho (up, down):  6.731E-06 0.000E+00

     total cpu time spent up to now is       43.5 secs

     total energy              =    -184.83180921 Ry
     estimated scf accuracy    <       0.00023321 Ry

     iteration # 15     ecut=   100.00 Ry     beta= 0.30
     Davidson diagonalization with overlap

---- Real-time Memory Report at c_bands before calling an iterative solver
            88 MiB given to the printing process from OS
            67 MiB allocation reported by mallinfo(arena+hblkhd)
        240562 MiB available memory on the node where the printing process lives
------------------
     ethr =  2.83E-07,  avg # of iterations =  4.5

     negative rho (up, down):  2.934E-06 0.000E+00

     total cpu time spent up to now is       45.2 secs

     total energy              =    -184.83185492 Ry
     estimated scf accuracy    <       0.00000190 Ry

     iteration # 16     ecut=   100.00 Ry     beta= 0.30
     Davidson diagonalization with overlap

---- Real-time Memory Report at c_bands before calling an iterative solver
            88 MiB given to the printing process from OS
            67 MiB allocation reported by mallinfo(arena+hblkhd)
        240563 MiB available memory on the node where the printing process lives
------------------
     ethr =  7.33E-09,  avg # of iterations =  5.4

     negative rho (up, down):  2.351E-05 0.000E+00

     total cpu time spent up to now is       47.0 secs

     total energy              =    -184.83185194 Ry
     estimated scf accuracy    <       0.00001051 Ry

     iteration # 17     ecut=   100.00 Ry     beta= 0.30
     Davidson diagonalization with overlap

---- Real-time Memory Report at c_bands before calling an iterative solver
            88 MiB given to the printing process from OS
            67 MiB allocation reported by mallinfo(arena+hblkhd)
        240563 MiB available memory on the node where the printing process lives
------------------
     ethr =  7.33E-09,  avg # of iterations =  6.1

     negative rho (up, down):  3.597E-06 0.000E+00

     total cpu time spent up to now is       49.2 secs

     total energy              =    -184.83185677 Ry
     estimated scf accuracy    <       0.00000734 Ry

     iteration # 18     ecut=   100.00 Ry     beta= 0.30
     Davidson diagonalization with overlap

---- Real-time Memory Report at c_bands before calling an iterative solver
            88 MiB given to the printing process from OS
            67 MiB allocation reported by mallinfo(arena+hblkhd)
        240563 MiB available memory on the node where the printing process lives
------------------
     ethr =  7.33E-09,  avg # of iterations =  1.0

     negative rho (up, down):  4.356E-06 0.000E+00

     total cpu time spent up to now is       50.3 secs

     total energy              =    -184.83185556 Ry
     estimated scf accuracy    <       0.00000597 Ry

     iteration # 19     ecut=   100.00 Ry     beta= 0.30
     Davidson diagonalization with overlap

---- Real-time Memory Report at c_bands before calling an iterative solver
            88 MiB given to the printing process from OS
            67 MiB allocation reported by mallinfo(arena+hblkhd)
        240563 MiB available memory on the node where the printing process lives
------------------
     ethr =  7.33E-09,  avg # of iterations =  3.5

     negative rho (up, down):  1.973E-06 0.000E+00

     total cpu time spent up to now is       51.7 secs

     total energy              =    -184.83185593 Ry
     estimated scf accuracy    <       0.00000068 Ry

     iteration # 20     ecut=   100.00 Ry     beta= 0.30
     Davidson diagonalization with overlap

---- Real-time Memory Report at c_bands before calling an iterative solver
            88 MiB given to the printing process from OS
            67 MiB allocation reported by mallinfo(arena+hblkhd)
        240563 MiB available memory on the node where the printing process lives
------------------
     ethr =  2.63E-09,  avg # of iterations =  3.3

     total cpu time spent up to now is       53.1 secs

     total energy              =    -184.83185600 Ry
     estimated scf accuracy    <       0.00000013 Ry

     iteration # 21     ecut=   100.00 Ry     beta= 0.30
     Davidson diagonalization with overlap

---- Real-time Memory Report at c_bands before calling an iterative solver
            88 MiB given to the printing process from OS
            67 MiB allocation reported by mallinfo(arena+hblkhd)
        240563 MiB available memory on the node where the printing process lives
------------------
     ethr =  4.99E-10,  avg # of iterations =  4.6

     total cpu time spent up to now is       54.7 secs

     total energy              =    -184.83185604 Ry
     estimated scf accuracy    <          1.1E-09 Ry

     iteration # 22     ecut=   100.00 Ry     beta= 0.30
     Davidson diagonalization with overlap

---- Real-time Memory Report at c_bands before calling an iterative solver
            88 MiB given to the printing process from OS
            67 MiB allocation reported by mallinfo(arena+hblkhd)
        240558 MiB available memory on the node where the printing process lives
------------------
     ethr =  4.18E-12,  avg # of iterations =  6.7

     total cpu time spent up to now is       56.8 secs

     total energy              =    -184.83185605 Ry
     estimated scf accuracy    <          7.6E-09 Ry

     iteration # 23     ecut=   100.00 Ry     beta= 0.30
     Davidson diagonalization with overlap

---- Real-time Memory Report at c_bands before calling an iterative solver
            88 MiB given to the printing process from OS
            67 MiB allocation reported by mallinfo(arena+hblkhd)
        240559 MiB available memory on the node where the printing process lives
------------------
     ethr =  4.18E-12,  avg # of iterations =  1.1

     negative rho (up, down):  1.996E-07 0.000E+00

     total cpu time spent up to now is       57.9 secs

     total energy              =    -184.83185604 Ry
     estimated scf accuracy    <          7.8E-09 Ry

     iteration # 24     ecut=   100.00 Ry     beta= 0.30
     Davidson diagonalization with overlap

---- Real-time Memory Report at c_bands before calling an iterative solver
            88 MiB given to the printing process from OS
            67 MiB allocation reported by mallinfo(arena+hblkhd)
        240559 MiB available memory on the node where the printing process lives
------------------
     ethr =  4.18E-12,  avg # of iterations =  6.2

     total cpu time spent up to now is       60.1 secs

     total energy              =    -184.83185604 Ry
     estimated scf accuracy    <          3.8E-09 Ry

     iteration # 25     ecut=   100.00 Ry     beta= 0.30
     Davidson diagonalization with overlap

---- Real-time Memory Report at c_bands before calling an iterative solver
            88 MiB given to the printing process from OS
            67 MiB allocation reported by mallinfo(arena+hblkhd)
        240561 MiB available memory on the node where the printing process lives
------------------
     ethr =  4.18E-12,  avg # of iterations =  3.1

     total cpu time spent up to now is       61.5 secs

     total energy              =    -184.83185604 Ry
     estimated scf accuracy    <          8.6E-10 Ry

     iteration # 26     ecut=   100.00 Ry     beta= 0.30
     Davidson diagonalization with overlap

---- Real-time Memory Report at c_bands before calling an iterative solver
            88 MiB given to the printing process from OS
            67 MiB allocation reported by mallinfo(arena+hblkhd)
        240561 MiB available memory on the node where the printing process lives
------------------
     ethr =  3.31E-12,  avg # of iterations =  3.1

     total cpu time spent up to now is       62.8 secs

     total energy              =    -184.83185604 Ry
     estimated scf accuracy    <          9.4E-11 Ry

     iteration # 27     ecut=   100.00 Ry     beta= 0.30
     Davidson diagonalization with overlap

---- Real-time Memory Report at c_bands before calling an iterative solver
            88 MiB given to the printing process from OS
            67 MiB allocation reported by mallinfo(arena+hblkhd)
        240561 MiB available memory on the node where the printing process lives
------------------
     ethr =  3.63E-13,  avg # of iterations =  5.1

     negative rho (up, down):  3.700E-08 0.000E+00

     total cpu time spent up to now is       64.6 secs

     total energy              =    -184.83185604 Ry
     estimated scf accuracy    <          2.3E-11 Ry

     iteration # 28     ecut=   100.00 Ry     beta= 0.30
     Davidson diagonalization with overlap

---- Real-time Memory Report at c_bands before calling an iterative solver
            88 MiB given to the printing process from OS
            67 MiB allocation reported by mallinfo(arena+hblkhd)
        240561 MiB available memory on the node where the printing process lives
------------------
     ethr =  1.00E-13,  avg # of iterations =  4.1

     negative rho (up, down):  9.837E-08 0.000E+00

     total cpu time spent up to now is       66.1 secs

     total energy              =    -184.83185604 Ry
     estimated scf accuracy    <          1.1E-10 Ry

     iteration # 29     ecut=   100.00 Ry     beta= 0.30
     Davidson diagonalization with overlap

---- Real-time Memory Report at c_bands before calling an iterative solver
            88 MiB given to the printing process from OS
            67 MiB allocation reported by mallinfo(arena+hblkhd)
        240561 MiB available memory on the node where the printing process lives
------------------
     ethr =  1.00E-13,  avg # of iterations =  1.2

     negative rho (up, down):  9.104E-08 0.000E+00

     total cpu time spent up to now is       67.3 secs

     total energy              =    -184.83185604 Ry
     estimated scf accuracy    <          1.3E-10 Ry

     iteration # 30     ecut=   100.00 Ry     beta= 0.30
     Davidson diagonalization with overlap

---- Real-time Memory Report at c_bands before calling an iterative solver
            88 MiB given to the printing process from OS
            67 MiB allocation reported by mallinfo(arena+hblkhd)
        240560 MiB available memory on the node where the printing process lives
------------------
     ethr =  1.00E-13,  avg # of iterations =  1.0

     negative rho (up, down):  4.429E-08 0.000E+00

     total cpu time spent up to now is       68.4 secs

     total energy              =    -184.83185604 Ry
     estimated scf accuracy    <          1.4E-10 Ry

     iteration # 31     ecut=   100.00 Ry     beta= 0.30
     Davidson diagonalization with overlap

---- Real-time Memory Report at c_bands before calling an iterative solver
            88 MiB given to the printing process from OS
            67 MiB allocation reported by mallinfo(arena+hblkhd)
        240560 MiB available memory on the node where the printing process lives
------------------
     ethr =  1.00E-13,  avg # of iterations =  4.4

     negative rho (up, down):  3.499E-08 0.000E+00

     total cpu time spent up to now is       70.0 secs

     total energy              =    -184.83185604 Ry
     estimated scf accuracy    <          3.3E-10 Ry

     iteration # 32     ecut=   100.00 Ry     beta= 0.30
     Davidson diagonalization with overlap

---- Real-time Memory Report at c_bands before calling an iterative solver
            88 MiB given to the printing process from OS
            67 MiB allocation reported by mallinfo(arena+hblkhd)
        240560 MiB available memory on the node where the printing process lives
------------------
     ethr =  1.00E-13,  avg # of iterations =  2.1

     negative rho (up, down):  4.937E-08 0.000E+00

     total cpu time spent up to now is       71.2 secs

     total energy              =    -184.83185604 Ry
     estimated scf accuracy    <          2.4E-10 Ry

     iteration # 33     ecut=   100.00 Ry     beta= 0.30
     Davidson diagonalization with overlap

---- Real-time Memory Report at c_bands before calling an iterative solver
            88 MiB given to the printing process from OS
            67 MiB allocation reported by mallinfo(arena+hblkhd)
        240531 MiB available memory on the node where the printing process lives
------------------
     ethr =  1.00E-13,  avg # of iterations =  1.0

     negative rho (up, down):  5.596E-08 0.000E+00

     total cpu time spent up to now is       72.3 secs

     total energy              =    -184.83185604 Ry
     estimated scf accuracy    <          2.8E-10 Ry

     iteration # 34     ecut=   100.00 Ry     beta= 0.30
     Davidson diagonalization with overlap

---- Real-time Memory Report at c_bands before calling an iterative solver
            88 MiB given to the printing process from OS
            67 MiB allocation reported by mallinfo(arena+hblkhd)
        240556 MiB available memory on the node where the printing process lives
------------------
     ethr =  1.00E-13,  avg # of iterations =  1.9

     negative rho (up, down):  4.910E-08 0.000E+00

     total cpu time spent up to now is       73.5 secs

     total energy              =    -184.83185604 Ry
     estimated scf accuracy    <          3.6E-10 Ry

     iteration # 35     ecut=   100.00 Ry     beta= 0.30
     Davidson diagonalization with overlap

---- Real-time Memory Report at c_bands before calling an iterative solver
            88 MiB given to the printing process from OS
            67 MiB allocation reported by mallinfo(arena+hblkhd)
        240556 MiB available memory on the node where the printing process lives
------------------
     ethr =  1.00E-13,  avg # of iterations =  1.0

     total cpu time spent up to now is       74.6 secs

     total energy              =    -184.83185604 Ry
     estimated scf accuracy    <          3.5E-10 Ry

     iteration # 36     ecut=   100.00 Ry     beta= 0.30
     Davidson diagonalization with overlap

---- Real-time Memory Report at c_bands before calling an iterative solver
            88 MiB given to the printing process from OS
            67 MiB allocation reported by mallinfo(arena+hblkhd)
        240557 MiB available memory on the node where the printing process lives
------------------
     ethr =  1.00E-13,  avg # of iterations =  4.1

     total cpu time spent up to now is       76.1 secs

     total energy              =    -184.83185604 Ry
     estimated scf accuracy    <          1.2E-10 Ry

     iteration # 37     ecut=   100.00 Ry     beta= 0.30
     Davidson diagonalization with overlap

---- Real-time Memory Report at c_bands before calling an iterative solver
            88 MiB given to the printing process from OS
            67 MiB allocation reported by mallinfo(arena+hblkhd)
        240557 MiB available memory on the node where the printing process lives
------------------
     ethr =  1.00E-13,  avg # of iterations =  5.7

     total cpu time spent up to now is       78.2 secs

     total energy              =    -184.83185604 Ry
     estimated scf accuracy    <          2.6E-11 Ry

     iteration # 38     ecut=   100.00 Ry     beta= 0.30
     Davidson diagonalization with overlap

---- Real-time Memory Report at c_bands before calling an iterative solver
            88 MiB given to the printing process from OS
            67 MiB allocation reported by mallinfo(arena+hblkhd)
        240558 MiB available memory on the node where the printing process lives
------------------
     ethr =  1.00E-13,  avg # of iterations =  4.3

     total cpu time spent up to now is       79.8 secs

     total energy              =    -184.83185604 Ry
     estimated scf accuracy    <          1.7E-11 Ry

     iteration # 39     ecut=   100.00 Ry     beta= 0.30
     Davidson diagonalization with overlap

---- Real-time Memory Report at c_bands before calling an iterative solver
            88 MiB given to the printing process from OS
            67 MiB allocation reported by mallinfo(arena+hblkhd)
        240560 MiB available memory on the node where the printing process lives
------------------
     ethr =  1.00E-13,  avg # of iterations =  1.0

     total cpu time spent up to now is       80.9 secs

     total energy              =    -184.83185604 Ry
     estimated scf accuracy    <          1.3E-11 Ry

     iteration # 40     ecut=   100.00 Ry     beta= 0.30
     Davidson diagonalization with overlap

---- Real-time Memory Report at c_bands before calling an iterative solver
            88 MiB given to the printing process from OS
            67 MiB allocation reported by mallinfo(arena+hblkhd)
        240561 MiB available memory on the node where the printing process lives
------------------
     ethr =  1.00E-13,  avg # of iterations =  3.1

     total cpu time spent up to now is       82.3 secs

     total energy              =    -184.83185604 Ry
     estimated scf accuracy    <          5.8E-12 Ry

     iteration # 41     ecut=   100.00 Ry     beta= 0.30
     Davidson diagonalization with overlap

---- Real-time Memory Report at c_bands before calling an iterative solver
            88 MiB given to the printing process from OS
            67 MiB allocation reported by mallinfo(arena+hblkhd)
        240561 MiB available memory on the node where the printing process lives
------------------
     ethr =  1.00E-13,  avg # of iterations =  1.0

     total cpu time spent up to now is       83.4 secs

     total energy              =    -184.83185604 Ry
     estimated scf accuracy    <          2.6E-12 Ry

     iteration # 42     ecut=   100.00 Ry     beta= 0.30
     Davidson diagonalization with overlap

---- Real-time Memory Report at c_bands before calling an iterative solver
            88 MiB given to the printing process from OS
            67 MiB allocation reported by mallinfo(arena+hblkhd)
        240561 MiB available memory on the node where the printing process lives
------------------
     ethr =  1.00E-13,  avg # of iterations =  1.0

     total cpu time spent up to now is       84.6 secs

     total energy              =    -184.83185604 Ry
     estimated scf accuracy    <          1.0E-12 Ry

     iteration # 43     ecut=   100.00 Ry     beta= 0.30
     Davidson diagonalization with overlap

---- Real-time Memory Report at c_bands before calling an iterative solver
            88 MiB given to the printing process from OS
            67 MiB allocation reported by mallinfo(arena+hblkhd)
        240561 MiB available memory on the node where the printing process lives
------------------
     ethr =  1.00E-13,  avg # of iterations =  1.1

     total cpu time spent up to now is       85.7 secs

     total energy              =    -184.83185604 Ry
     estimated scf accuracy    <          6.1E-14 Ry

     iteration # 44     ecut=   100.00 Ry     beta= 0.30
     Davidson diagonalization with overlap

---- Real-time Memory Report at c_bands before calling an iterative solver
            88 MiB given to the printing process from OS
            67 MiB allocation reported by mallinfo(arena+hblkhd)
        240561 MiB available memory on the node where the printing process lives
------------------
     ethr =  1.00E-13,  avg # of iterations =  1.0

     total cpu time spent up to now is       86.8 secs

     total energy              =    -184.83185604 Ry
     estimated scf accuracy    <          2.3E-13 Ry

     iteration # 45     ecut=   100.00 Ry     beta= 0.30
     Davidson diagonalization with overlap

---- Real-time Memory Report at c_bands before calling an iterative solver
            88 MiB given to the printing process from OS
            67 MiB allocation reported by mallinfo(arena+hblkhd)
        240561 MiB available memory on the node where the printing process lives
------------------
     ethr =  1.00E-13,  avg # of iterations =  1.0

     total cpu time spent up to now is       87.9 secs

     total energy              =    -184.83185604 Ry
     estimated scf accuracy    <          2.1E-13 Ry

     iteration # 46     ecut=   100.00 Ry     beta= 0.30
     Davidson diagonalization with overlap

---- Real-time Memory Report at c_bands before calling an iterative solver
            88 MiB given to the printing process from OS
            67 MiB allocation reported by mallinfo(arena+hblkhd)
        240561 MiB available memory on the node where the printing process lives
------------------
     ethr =  1.00E-13,  avg # of iterations =  1.0

     total cpu time spent up to now is       89.0 secs

     total energy              =    -184.83185604 Ry
     estimated scf accuracy    <          1.7E-13 Ry

     iteration # 47     ecut=   100.00 Ry     beta= 0.30
     Davidson diagonalization with overlap

---- Real-time Memory Report at c_bands before calling an iterative solver
            88 MiB given to the printing process from OS
            67 MiB allocation reported by mallinfo(arena+hblkhd)
        240557 MiB available memory on the node where the printing process lives
------------------
     ethr =  1.00E-13,  avg # of iterations =  1.0

     total cpu time spent up to now is       90.2 secs

     total energy              =    -184.83185604 Ry
     estimated scf accuracy    <          2.0E-13 Ry

     iteration # 48     ecut=   100.00 Ry     beta= 0.30
     Davidson diagonalization with overlap

---- Real-time Memory Report at c_bands before calling an iterative solver
            88 MiB given to the printing process from OS
            67 MiB allocation reported by mallinfo(arena+hblkhd)
        240562 MiB available memory on the node where the printing process lives
------------------
     ethr =  1.00E-13,  avg # of iterations =  1.0

     total cpu time spent up to now is       91.3 secs

     total energy              =    -184.83185604 Ry
     estimated scf accuracy    <          2.2E-13 Ry

     iteration # 49     ecut=   100.00 Ry     beta= 0.30
     Davidson diagonalization with overlap

---- Real-time Memory Report at c_bands before calling an iterative solver
            88 MiB given to the printing process from OS
            67 MiB allocation reported by mallinfo(arena+hblkhd)
        240562 MiB available memory on the node where the printing process lives
------------------
     ethr =  1.00E-13,  avg # of iterations =  1.0

     total cpu time spent up to now is       92.4 secs

     total energy              =    -184.83185604 Ry
     estimated scf accuracy    <          1.2E-13 Ry

     iteration # 50     ecut=   100.00 Ry     beta= 0.30
     Davidson diagonalization with overlap

---- Real-time Memory Report at c_bands before calling an iterative solver
            88 MiB given to the printing process from OS
            67 MiB allocation reported by mallinfo(arena+hblkhd)
        240562 MiB available memory on the node where the printing process lives
------------------
     ethr =  1.00E-13,  avg # of iterations =  1.0

     total cpu time spent up to now is       93.5 secs

     total energy              =    -184.83185604 Ry
     estimated scf accuracy    <          6.9E-13 Ry

     iteration # 51     ecut=   100.00 Ry     beta= 0.30
     Davidson diagonalization with overlap

---- Real-time Memory Report at c_bands before calling an iterative solver
            88 MiB given to the printing process from OS
            67 MiB allocation reported by mallinfo(arena+hblkhd)
        240562 MiB available memory on the node where the printing process lives
------------------
     ethr =  1.00E-13,  avg # of iterations =  1.0

     total cpu time spent up to now is       94.6 secs

     total energy              =    -184.83185604 Ry
     estimated scf accuracy    <          2.9E-13 Ry

     iteration # 52     ecut=   100.00 Ry     beta= 0.30
     Davidson diagonalization with overlap

---- Real-time Memory Report at c_bands before calling an iterative solver
            88 MiB given to the printing process from OS
            67 MiB allocation reported by mallinfo(arena+hblkhd)
        240562 MiB available memory on the node where the printing process lives
------------------
     ethr =  1.00E-13,  avg # of iterations =  1.0

     total cpu time spent up to now is       95.8 secs

     total energy              =    -184.83185604 Ry
     estimated scf accuracy    <          3.0E-14 Ry

     iteration # 53     ecut=   100.00 Ry     beta= 0.30
     Davidson diagonalization with overlap

---- Real-time Memory Report at c_bands before calling an iterative solver
            88 MiB given to the printing process from OS
            67 MiB allocation reported by mallinfo(arena+hblkhd)
        240562 MiB available memory on the node where the printing process lives
------------------
     ethr =  1.00E-13,  avg # of iterations =  1.0

     total cpu time spent up to now is       96.9 secs

     total energy              =    -184.83185604 Ry
     estimated scf accuracy    <          4.8E-14 Ry

     iteration # 54     ecut=   100.00 Ry     beta= 0.30
     Davidson diagonalization with overlap

---- Real-time Memory Report at c_bands before calling an iterative solver
            88 MiB given to the printing process from OS
            67 MiB allocation reported by mallinfo(arena+hblkhd)
        240562 MiB available memory on the node where the printing process lives
------------------
     ethr =  1.00E-13,  avg # of iterations =  1.0

     total cpu time spent up to now is       98.0 secs

     total energy              =    -184.83185604 Ry
     estimated scf accuracy    <          2.0E-13 Ry

     iteration # 55     ecut=   100.00 Ry     beta= 0.30
     Davidson diagonalization with overlap

---- Real-time Memory Report at c_bands before calling an iterative solver
            88 MiB given to the printing process from OS
            67 MiB allocation reported by mallinfo(arena+hblkhd)
        240562 MiB available memory on the node where the printing process lives
------------------
     ethr =  1.00E-13,  avg # of iterations =  1.0

     total cpu time spent up to now is       99.1 secs

     total energy              =    -184.83185604 Ry
     estimated scf accuracy    <          2.6E-13 Ry

     iteration # 56     ecut=   100.00 Ry     beta= 0.30
     Davidson diagonalization with overlap

---- Real-time Memory Report at c_bands before calling an iterative solver
            88 MiB given to the printing process from OS
            67 MiB allocation reported by mallinfo(arena+hblkhd)
        240562 MiB available memory on the node where the printing process lives
------------------
     ethr =  1.00E-13,  avg # of iterations =  1.0

     total cpu time spent up to now is      100.2 secs

     total energy              =    -184.83185604 Ry
     estimated scf accuracy    <          7.8E-14 Ry

     iteration # 57     ecut=   100.00 Ry     beta= 0.30
     Davidson diagonalization with overlap

---- Real-time Memory Report at c_bands before calling an iterative solver
            88 MiB given to the printing process from OS
            67 MiB allocation reported by mallinfo(arena+hblkhd)
        240562 MiB available memory on the node where the printing process lives
------------------
     ethr =  1.00E-13,  avg # of iterations =  1.0

     total cpu time spent up to now is      101.3 secs

     total energy              =    -184.83185604 Ry
     estimated scf accuracy    <          1.6E-13 Ry

     iteration # 58     ecut=   100.00 Ry     beta= 0.30
     Davidson diagonalization with overlap

---- Real-time Memory Report at c_bands before calling an iterative solver
            88 MiB given to the printing process from OS
            67 MiB allocation reported by mallinfo(arena+hblkhd)
        240563 MiB available memory on the node where the printing process lives
------------------
     ethr =  1.00E-13,  avg # of iterations =  1.0

     total cpu time spent up to now is      102.4 secs

     total energy              =    -184.83185604 Ry
     estimated scf accuracy    <          8.6E-15 Ry

     iteration # 59     ecut=   100.00 Ry     beta= 0.30
     Davidson diagonalization with overlap

---- Real-time Memory Report at c_bands before calling an iterative solver
            88 MiB given to the printing process from OS
            67 MiB allocation reported by mallinfo(arena+hblkhd)
        240563 MiB available memory on the node where the printing process lives
------------------
     ethr =  1.00E-13,  avg # of iterations =  1.0

     total cpu time spent up to now is      103.5 secs

     total energy              =    -184.83185604 Ry
     estimated scf accuracy    <          8.4E-15 Ry

     iteration # 60     ecut=   100.00 Ry     beta= 0.30
     Davidson diagonalization with overlap

---- Real-time Memory Report at c_bands before calling an iterative solver
            88 MiB given to the printing process from OS
            67 MiB allocation reported by mallinfo(arena+hblkhd)
        240563 MiB available memory on the node where the printing process lives
------------------
     ethr =  1.00E-13,  avg # of iterations =  1.0

     total cpu time spent up to now is      104.6 secs

     total energy              =    -184.83185604 Ry
     estimated scf accuracy    <          1.0E-14 Ry

     iteration # 61     ecut=   100.00 Ry     beta= 0.30
     Davidson diagonalization with overlap

---- Real-time Memory Report at c_bands before calling an iterative solver
            88 MiB given to the printing process from OS
            67 MiB allocation reported by mallinfo(arena+hblkhd)
        240563 MiB available memory on the node where the printing process lives
------------------
     ethr =  1.00E-13,  avg # of iterations =  1.0

     total cpu time spent up to now is      105.7 secs

     total energy              =    -184.83185604 Ry
     estimated scf accuracy    <          5.4E-15 Ry

     iteration # 62     ecut=   100.00 Ry     beta= 0.30
     Davidson diagonalization with overlap

---- Real-time Memory Report at c_bands before calling an iterative solver
            88 MiB given to the printing process from OS
            67 MiB allocation reported by mallinfo(arena+hblkhd)
        240564 MiB available memory on the node where the printing process lives
------------------
     ethr =  1.00E-13,  avg # of iterations =  1.0

     total cpu time spent up to now is      106.7 secs

     End of self-consistent calculation

          k = 0.0000 0.0000 0.0000 ( 20791 PWs)   bands (ev):

   -61.9140 -36.1161 -35.8569 -35.8569 -15.3913 -14.0337  -6.9398  -3.8081
    -3.8081  -3.0187  -2.6561  -2.6561  -1.2462

     occupation numbers 
     1.0000   1.0000   1.0000   1.0000   1.0000   1.0000   1.0000   1.0000
     1.0000   1.0000   1.0000   1.0000   1.0000

          k = 0.0000 0.0642 0.0000 ( 20785 PWs)   bands (ev):

   -61.9126 -36.1135 -35.8701 -35.8599 -15.3427 -14.0139  -6.8843  -3.9182
    -3.7570  -3.2934  -2.7353  -2.4515  -1.2640

     occupation numbers 
     1.0000   1.0000   1.0000   1.0000   1.0000   1.0000   1.0000   1.0000
     1.0000   1.0000   1.0000   1.0000   1.0000

          k = 0.0000 0.1283 0.0000 ( 20779 PWs)   bands (ev):

   -61.9088 -36.1060 -35.9078 -35.8684 -15.2002 -13.9557  -6.7285  -4.2095
    -3.7195  -3.6086  -2.9460  -2.2611  -1.3375

     occupation numbers 
     1.0000   1.0000   1.0000   1.0000   1.0000   1.0000   1.0000   1.0000
     1.0000   1.0000   1.0000   1.0000   1.0000

          k = 0.0000 0.1925 0.0000 ( 20771 PWs)   bands (ev):

   -61.9030 -36.0946 -35.9652 -35.8815 -14.9736 -13.8634  -6.5111  -4.5878
    -4.1692  -3.3771  -3.2301  -2.2511  -1.5129

     occupation numbers 
     1.0000   1.0000   1.0000   1.0000   1.0000   1.0000   1.0000   1.0000
     1.0000   1.0000   1.0000   1.0000   1.0000

          k = 0.0000 0.2566 0.0000 ( 20764 PWs)   bands (ev):

   -61.8958 -36.0805 -36.0349 -35.8975 -14.6797 -13.7442  -6.3269  -4.9275
    -4.6243  -3.5333  -3.0877  -2.4048  -1.7972

     occupation numbers 
     1.0000   1.0000   1.0000   1.0000   1.0000   1.0000   1.0000   1.0000
     1.0000   1.0000   1.0000   1.0000   1.0000

          k = 0.0000 0.3208 0.0000 ( 20704 PWs)   bands (ev):

   -61.8881 -36.1083 -36.0654 -35.9144 -14.3431 -13.6092  -6.3356  -5.0933
    -5.0696  -3.8171  -2.7769  -2.6254  -2.0836

     occupation numbers 
     1.0000   1.0000   1.0000   1.0000   1.0000   1.0000   1.0000   1.0000
     1.0000   1.0000   1.0000   1.0000   1.0000

          k = 0.0000 0.3849 0.0000 ( 20700 PWs)   bands (ev):

   -61.8809 -36.1765 -36.0513 -35.9303 -13.9976 -13.4732  -6.5571  -5.4781
    -5.1293  -4.0566  -2.8287  -2.4889  -2.2075

     occupation numbers 
     1.0000   1.0000   1.0000   1.0000   1.0000   1.0000   1.0000   1.0000
     1.0000   1.0000   1.0000   1.0000   1.0000

          k = 0.0000 0.4491 0.0000 ( 20654 PWs)   bands (ev):

   -61.8751 -36.2316 -36.0397 -35.9432 -13.6882 -13.3546  -6.8300  -5.8119
    -5.1994  -4.2365  -2.9771  -2.2646  -2.1123

     occupation numbers 
     1.0000   1.0000   1.0000   1.0000   1.0000   1.0000   1.0000   1.0000
     1.0000   1.0000   1.0000   1.0000   1.0000

          k = 0.0000 0.5132 0.0000 ( 20642 PWs)   bands (ev):

   -61.8712 -36.2673 -36.0321 -35.9516 -13.4688 -13.2729  -7.0375  -6.0319
    -5.2949  -4.3477  -3.0635  -2.1276  -1.9285

     occupation numbers 
     1.0000   1.0000   1.0000   1.0000   1.0000   1.0000   1.0000   1.0000
     1.0000   1.0000   1.0000   1.0000   1.0000

          k = 0.0000-0.5774 0.0000 ( 20610 PWs)   bands (ev):

   -61.8699 -36.2797 -36.0295 -35.9545 -13.3886 -13.2436  -7.1146  -6.1088
    -5.3376  -4.3853  -3.0915  -2.0824  -1.8404

     occupation numbers 
     1.0000   1.0000   1.0000   1.0000   1.0000   1.0000   1.0000   1.0000
     1.0000   1.0000   1.0000   1.0000   1.0000

          k = 0.0556 0.0962 0.0000 ( 20791 PWs)   bands (ev):

   -61.9101 -36.1085 -35.8952 -35.8660 -15.2471 -13.9749  -6.7784  -4.1176
    -3.6585  -3.5929  -2.9081  -2.2745  -1.3095

     occupation numbers 
     1.0000   1.0000   1.0000   1.0000   1.0000   1.0000   1.0000   1.0000
     1.0000   1.0000   1.0000   1.0000   1.0000

          k = 0.0556 0.1604 0.0000 ( 20790 PWs)   bands (ev):

   -61.9052 -36.0990 -35.9420 -35.8776 -15.0625 -13.8995  -6.5889  -4.4481
    -3.9780  -3.4739  -3.2132  -2.1599  -1.4342

     occupation numbers 
     1.0000   1.0000   1.0000   1.0000   1.0000   1.0000   1.0000   1.0000
     1.0000   1.0000   1.0000   1.0000   1.0000

          k = 0.0556 0.2245 0.0000 ( 20759 PWs)   bands (ev):

   -61.8987 -36.0862 -36.0044 -35.8933 -14.8019 -13.7934  -6.3776  -4.8024
    -4.3973  -3.5529  -3.2287  -2.2110  -1.6679

     occupation numbers 
     1.0000   1.0000   1.0000   1.0000   1.0000   1.0000   1.0000   1.0000
     1.0000   1.0000   1.0000   1.0000   1.0000

          k = 0.0556 0.2887 0.0000 ( 20730 PWs)   bands (ev):

   -61.8913 -36.0746 -36.0717 -35.9110 -14.4859 -13.6655  -6.2791  -5.0410
    -4.8410  -3.8540  -2.9691  -2.3963  -1.9515

     occupation numbers 
     1.0000   1.0000   1.0000   1.0000   1.0000   1.0000   1.0000   1.0000
     1.0000   1.0000   1.0000   1.0000   1.0000

          k = 0.0556 0.3528 0.0000 ( 20684 PWs)   bands (ev):

   -61.8839 -36.1441 -36.0571 -35.9287 -14.1433 -13.5287  -6.4112  -5.2823
    -5.0975  -4.0847  -2.7654  -2.6285  -2.1087

     occupation numbers 
     1.0000   1.0000   1.0000   1.0000   1.0000   1.0000   1.0000   1.0000
     1.0000   1.0000   1.0000   1.0000   1.0000

          k = 0.0556 0.4170 0.0000 ( 20682 PWs)   bands (ev):

   -61.8773 -36.2046 -36.0442 -35.9443 -13.8131 -13.3995  -6.6687  -5.6742
    -5.1325  -4.2450  -2.8389  -2.6282  -2.0352

     occupation numbers 
     1.0000   1.0000   1.0000   1.0000   1.0000   1.0000   1.0000   1.0000
     1.0000   1.0000   1.0000   1.0000   1.0000

          k = 0.0556 0.4811 0.0000 ( 20654 PWs)   bands (ev):

   -61.8725 -36.2491 -36.0346 -35.9557 -13.5450 -13.2974  -6.9082  -5.9681
    -5.2275  -4.3444  -2.9913  -2.4898  -1.8596

     occupation numbers 
     1.0000   1.0000   1.0000   1.0000   1.0000   1.0000   1.0000   1.0000
     1.0000   1.0000   1.0000   1.0000   1.0000

          k = 0.0556 0.5453 0.0000 ( 20635 PWs)   bands (ev):

   -61.8699 -36.2727 -36.0295 -35.9618 -13.3923 -13.2406  -7.0492  -6.1257
    -5.3081  -4.3917  -3.0701  -2.3988  -1.7195

     occupation numbers 
     1.0000   1.0000   1.0000   1.0000   1.0000   1.0000   1.0000   1.0000
     1.0000   1.0000   1.0000   1.0000   1.0000

          k = 0.1111 0.1925 0.0000 ( 20743 PWs)   bands (ev):

   -61.8997 -36.0882 -35.9923 -35.8933 -14.8437 -13.8101  -6.3978  -4.7488
    -4.2680  -3.6504  -3.2877  -2.0823  -1.6200

     occupation numbers 
     1.0000   1.0000   1.0000   1.0000   1.0000   1.0000   1.0000   1.0000
     1.0000   1.0000   1.0000   1.0000   1.0000

          k = 0.1111 0.2566 0.0000 ( 20724 PWs)   bands (ev):

   -61.8930 -36.0750 -36.0527 -35.9132 -14.5601 -13.6945  -6.2500  -4.9905
    -4.6172  -4.0566  -3.1117  -2.1444  -1.8626

     occupation numbers 
     1.0000   1.0000   1.0000   1.0000   1.0000   1.0000   1.0000   1.0000
     1.0000   1.0000   1.0000   1.0000   1.0000

          k = 0.1111 0.3208 0.0000 ( 20718 PWs)   bands (ev):

   -61.8858 -36.1161 -36.0608 -35.9347 -14.2360 -13.5630  -6.2843  -5.0706
    -5.0564  -4.2922  -3.0399  -2.3364  -2.0209

     occupation numbers 
     1.0000   1.0000   1.0000   1.0000   1.0000   1.0000   1.0000   1.0000
     1.0000   1.0000   1.0000   1.0000   1.0000

          k = 0.1111 0.3849 0.0000 ( 20674 PWs)   bands (ev):

   -61.8790 -36.1749 -36.0475 -35.9549 -13.9047 -13.4300  -6.4815  -5.5343
    -5.0393  -4.3952  -3.0599  -2.5874  -1.9884

     occupation numbers 
     1.0000   1.0000   1.0000   1.0000   1.0000   1.0000   1.0000   1.0000
     1.0000   1.0000   1.0000   1.0000   1.0000

          k = 0.1111 0.4491 0.0000 ( 20655 PWs)   bands (ev):

   -61.8735 -36.2225 -36.0366 -35.9714 -13.6096 -13.3135  -6.7051  -5.9168
    -5.1060  -4.4239  -3.0272  -2.8279  -1.8375

     occupation numbers 
     1.0000   1.0000   1.0000   1.0000   1.0000   1.0000   1.0000   1.0000
     1.0000   1.0000   1.0000   1.0000   1.0000

          k = 0.1111 0.5132 0.0000 ( 20647 PWs)   bands (ev):

   -61.8699 -36.2533 -36.0295 -35.9822 -13.4016 -13.2329  -6.8700  -6.1666
    -5.2194  -4.4168  -3.0026  -2.9572  -1.6635

     occupation numbers 
     1.0000   1.0000   1.0000   1.0000   1.0000   1.0000   1.0000   1.0000
     1.0000   1.0000   1.0000   1.0000   1.0000

          k = 0.1111 0.5774 0.0000 ( 20642 PWs)   bands (ev):

   -61.8686 -36.2640 -36.0271 -35.9859 -13.3259 -13.2040  -6.9306  -6.2533
    -5.2713  -4.4089  -3.0673  -2.9265  -1.5820

     occupation numbers 
     1.0000   1.0000   1.0000   1.0000   1.0000   1.0000   1.0000   1.0000
     1.0000   1.0000   1.0000   1.0000   1.0000

          k = 0.1667 0.2887 0.0000 ( 20715 PWs)   bands (ev):

   -61.8865 -36.1044 -36.0622 -35.9387 -14.2678 -13.5746  -6.2329  -5.0368
    -4.9383  -4.4386  -3.1487  -2.2003  -1.9913

     occupation numbers 
     1.0000   1.0000   1.0000   1.0000   1.0000   1.0000   1.0000   1.0000
     1.0000   1.0000   1.0000   1.0000   1.0000

          k = 0.1667 0.3528 0.0000 ( 20693 PWs)   bands (ev):

   -61.8799 -36.1539 -36.0493 -35.9659 -13.9529 -13.4452  -6.3509  -5.4204
    -4.9589  -4.5484  -3.3522  -2.3900  -1.9792

     occupation numbers 
     1.0000   1.0000   1.0000   1.0000   1.0000   1.0000   1.0000   1.0000
     1.0000   1.0000   1.0000   1.0000   1.0000

          k = 0.1667 0.4170 0.0000 ( 20650 PWs)   bands (ev):

   -61.8742 -36.1962 -36.0380 -35.9907 -13.6526 -13.3222  -6.5095  -5.8738
    -4.9438  -4.5304  -3.5283  -2.6509  -1.8613

     occupation numbers 
     1.0000   1.0000   1.0000   1.0000   1.0000   1.0000   1.0000   1.0000
     1.0000   1.0000   1.0000   1.0000   1.0000

          k = 0.1667 0.4811 0.0000 ( 20655 PWs)   bands (ev):

   -61.8699 -36.2270 -36.0296 -36.0096 -13.4119 -13.2242  -6.6363  -6.2099
    -5.0665  -4.4576  -3.5695  -2.9048  -1.6773

     occupation numbers 
     1.0000   1.0000   1.0000   1.0000   1.0000   1.0000   1.0000   1.0000
     1.0000   1.0000   1.0000   1.0000   1.0000

          k = 0.1667 0.5453 0.0000 ( 20653 PWs)   bands (ev):

   -61.8676 -36.2432 -36.0251 -36.0197 -13.2764 -13.1693  -6.7032  -6.3881
    -5.1889  -4.3898  -3.5574  -3.0692  -1.5195

     occupation numbers 
     1.0000   1.0000   1.0000   1.0000   1.0000   1.0000   1.0000   1.0000
     1.0000   1.0000   1.0000   1.0000   1.0000

          k = 0.2222 0.3849 0.0000 ( 20657 PWs)   bands (ev):

   -61.8744 -36.1844 -36.0384 -36.0002 -13.6677 -13.3249  -6.4262  -5.8552
    -4.8412  -4.5787  -3.7635  -2.5740  -1.8765

     occupation numbers 
     1.0000   1.0000   1.0000   1.0000   1.0000   1.0000   1.0000   1.0000
     1.0000   1.0000   1.0000   1.0000   1.0000

          k = 0.2222 0.4491 0.0000 ( 20658 PWs)   bands (ev):

   -61.8699 -36.2055 -36.0318 -36.0296 -13.4186 -13.2184  -6.4605  -6.2367
    -4.8594  -4.4893  -4.0720  -2.8300  -1.7019

     occupation numbers 
     1.0000   1.0000   1.0000   1.0000   1.0000   1.0000   1.0000   1.0000
     1.0000   1.0000   1.0000   1.0000   1.0000

          k = 0.2222 0.5132 0.0000 ( 20678 PWs)   bands (ev):

   -61.8669 -36.2172 -36.0544 -36.0238 -13.2466 -13.1441  -6.4897  -6.4455
    -5.0486  -4.3620  -4.1660  -3.0689  -1.4914

     occupation numbers 
     1.0000   1.0000   1.0000   1.0000   1.0000   1.0000   1.0000   1.0000
     1.0000   1.0000   1.0000   1.0000   1.0000

          k = 0.2222 0.5774 0.0000 ( 20668 PWs)   bands (ev):

   -61.8659 -36.2208 -36.0627 -36.0218 -13.1849 -13.1173  -6.5780  -6.4265
    -5.1579  -4.2961  -4.1758  -3.1743  -1.3868

     occupation numbers 
     1.0000   1.0000   1.0000   1.0000   1.0000   1.0000   1.0000   1.0000
     1.0000   1.0000   1.0000   1.0000   1.0000

          k = 0.2778 0.4811 0.0000 ( 20690 PWs)   bands (ev):

   -61.8667 -36.2031 -36.0716 -36.0233 -13.2368 -13.1349  -6.5273  -6.3207
    -4.8875  -4.5244  -4.3501  -3.0675  -1.4828

     occupation numbers 
     1.0000   1.0000   1.0000   1.0000   1.0000   1.0000   1.0000   1.0000
     1.0000   1.0000   1.0000   1.0000   1.0000

          k = 0.2778 0.5453 0.0000 ( 20706 PWs)   bands (ev):

   -61.8650 -36.1950 -36.0995 -36.0200 -13.1369 -13.0879  -6.6863  -6.1430
    -5.1526  -4.6313  -4.2106  -3.2605  -1.2904

     occupation numbers 
     1.0000   1.0000   1.0000   1.0000   1.0000   1.0000   1.0000   1.0000
     1.0000   1.0000   1.0000   1.0000   1.0000

          k = 0.3333 0.5774 0.0000 ( 20736 PWs)   bands (ev):

   -61.8643 -36.1758 -36.1268 -36.0187 -13.0986 -13.0675  -6.7566  -5.8960
    -5.3729  -4.7528  -4.1254  -3.3593  -1.1908

     occupation numbers 
     1.0000   1.0000   1.0000   1.0000   1.0000   1.0000   1.0000   1.0000
     1.0000   1.0000   1.0000   1.0000   1.0000

     highest occupied level (ev):    -1.1908

!    total energy              =    -184.83185604 Ry
     estimated scf accuracy    <          7.3E-16 Ry

     The total energy is the sum of the following terms:
     one-electron contribution =   -1239.50160994 Ry
     hartree contribution      =     619.89048518 Ry
     xc contribution           =     -33.15499403 Ry
     ewald contribution        =     467.93426274 Ry

     convergence has been achieved in  62 iterations

     Forces acting on atoms (cartesian axes, Ry/au):

     atom    1 type  1   force =     0.00000000    0.00000000    0.00000000
     atom    2 type  2   force =     0.00000000    0.00000000   -0.00165931
     atom    3 type  2   force =     0.00000000    0.00000000    0.00165931
     The non-local contrib.  to forces
     atom    1 type  1   force =     0.00000000    0.00000000    0.00000000
     atom    2 type  2   force =     0.00000000    0.00000000   -0.25747206
     atom    3 type  2   force =     0.00000000    0.00000000    0.25747206
     The ionic contribution  to forces
     atom    1 type  1   force =     0.00000000   -0.00000000    0.00000000
     atom    2 type  2   force =    -0.00000000    0.00000000   37.34192700
     atom    3 type  2   force =    -0.00000000    0.00000000  -37.34192700
     The local contribution  to forces
     atom    1 type  1   force =     0.00000000   -0.00000000   -0.00000000
     atom    2 type  2   force =    -0.00000000    0.00000000  -37.09042320
     atom    3 type  2   force =    -0.00000000    0.00000000   37.09042320
     The core correction contribution to forces
     atom    1 type  1   force =    -0.00000000    0.00000000   -0.00000000
     atom    2 type  2   force =     0.00000000   -0.00000000    0.00430896
     atom    3 type  2   force =     0.00000000   -0.00000000   -0.00430896
     The Hubbard contrib.    to forces
     atom    1 type  1   force =     0.00000000    0.00000000    0.00000000
     atom    2 type  2   force =     0.00000000    0.00000000    0.00000000
     atom    3 type  2   force =     0.00000000    0.00000000    0.00000000
     The SCF correction term to forces
     atom    1 type  1   force =    -0.00000000   -0.00000000   -0.00000000
     atom    2 type  2   force =     0.00000000    0.00000000   -0.00000001
     atom    3 type  2   force =     0.00000000    0.00000000    0.00000001

     Total force =     0.002347     Total SCF correction =     0.000000

     BFGS Geometry Optimization
     Energy error            =      5.5E-06 Ry
     Gradient error          =      1.7E-03 Ry/Bohr

     number of scf cycles    =   1
     number of bfgs steps    =   0

     energy             new  =    -184.8318560428 Ry

     new trust radius        =       0.0016593092 bohr
     new conv_thr            =            1.0E-15 Ry


ATOMIC_POSITIONS (crystal)
Mo               0.3333333333        0.6666666667        0.0000000000
S                0.6666666667        0.3333333333        0.0735915371    0   0   1
S                0.6666666667        0.3333333333       -0.0735915371    0   0   1



     Writing config-only to output data dir ./tmp/MoS2.save/ :
     XML data file
     NEW-OLD atomic charge density approx. for the potential

     negative rho (up, down):  1.178E-08 0.000E+00

     total cpu time spent up to now is      107.5 secs

     per-process dynamical memory:    69.1 Mb

     Self-consistent Calculation

     iteration #  1     ecut=   100.00 Ry     beta= 0.30
     Davidson diagonalization with overlap

---- Real-time Memory Report at c_bands before calling an iterative solver
            95 MiB given to the printing process from OS
            67 MiB allocation reported by mallinfo(arena+hblkhd)
        240541 MiB available memory on the node where the printing process lives
------------------
     ethr =  1.00E-06,  avg # of iterations =  2.0

     Threshold (ethr) on eigenvalues was too large:
     Diagonalizing with lowered threshold

     Davidson diagonalization with overlap

---- Real-time Memory Report at c_bands before calling an iterative solver
            95 MiB given to the printing process from OS
            67 MiB allocation reported by mallinfo(arena+hblkhd)
        240541 MiB available memory on the node where the printing process lives
------------------
     ethr =  5.18E-09,  avg # of iterations =  5.1

     negative rho (up, down):  1.694E-08 0.000E+00

     total cpu time spent up to now is      110.5 secs

     total energy              =    -184.83186046 Ry
     estimated scf accuracy    <       0.00000018 Ry

     iteration #  2     ecut=   100.00 Ry     beta= 0.30
     Davidson diagonalization with overlap

---- Real-time Memory Report at c_bands before calling an iterative solver
            95 MiB given to the printing process from OS
            67 MiB allocation reported by mallinfo(arena+hblkhd)
        240547 MiB available memory on the node where the printing process lives
------------------
     ethr =  6.82E-10,  avg # of iterations =  2.5

     negative rho (up, down):  6.720E-08 0.000E+00

     total cpu time spent up to now is      111.8 secs

     total energy              =    -184.83186041 Ry
     estimated scf accuracy    <       0.00000013 Ry

     iteration #  3     ecut=   100.00 Ry     beta= 0.30
     Davidson diagonalization with overlap

---- Real-time Memory Report at c_bands before calling an iterative solver
            95 MiB given to the printing process from OS
            67 MiB allocation reported by mallinfo(arena+hblkhd)
        240547 MiB available memory on the node where the printing process lives
------------------
     ethr =  4.83E-10,  avg # of iterations =  4.2

     negative rho (up, down):  4.403E-08 0.000E+00

     total cpu time spent up to now is      113.4 secs

     total energy              =    -184.83186045 Ry
     estimated scf accuracy    <       0.00000004 Ry

     iteration #  4     ecut=   100.00 Ry     beta= 0.30
     Davidson diagonalization with overlap

---- Real-time Memory Report at c_bands before calling an iterative solver
            95 MiB given to the printing process from OS
            67 MiB allocation reported by mallinfo(arena+hblkhd)
        240547 MiB available memory on the node where the printing process lives
------------------
     ethr =  1.51E-10,  avg # of iterations =  1.2

     negative rho (up, down):  4.687E-08 0.000E+00

     total cpu time spent up to now is      114.6 secs

     total energy              =    -184.83186045 Ry
     estimated scf accuracy    <       0.00000003 Ry

     iteration #  5     ecut=   100.00 Ry     beta= 0.30
     Davidson diagonalization with overlap

---- Real-time Memory Report at c_bands before calling an iterative solver
            95 MiB given to the printing process from OS
            67 MiB allocation reported by mallinfo(arena+hblkhd)
        240546 MiB available memory on the node where the printing process lives
------------------
     ethr =  1.06E-10,  avg # of iterations =  2.8

     negative rho (up, down):  3.064E-08 0.000E+00

     total cpu time spent up to now is      115.8 secs

     total energy              =    -184.83186045 Ry
     estimated scf accuracy    <          4.9E-09 Ry

     iteration #  6     ecut=   100.00 Ry     beta= 0.30
     Davidson diagonalization with overlap

---- Real-time Memory Report at c_bands before calling an iterative solver
            95 MiB given to the printing process from OS
            67 MiB allocation reported by mallinfo(arena+hblkhd)
        240546 MiB available memory on the node where the printing process lives
------------------
     ethr =  1.88E-11,  avg # of iterations =  4.6

     total cpu time spent up to now is      117.5 secs

     total energy              =    -184.83186045 Ry
     estimated scf accuracy    <          1.4E-10 Ry

     iteration #  7     ecut=   100.00 Ry     beta= 0.30
     Davidson diagonalization with overlap

---- Real-time Memory Report at c_bands before calling an iterative solver
            95 MiB given to the printing process from OS
            67 MiB allocation reported by mallinfo(arena+hblkhd)
        240545 MiB available memory on the node where the printing process lives
------------------
     ethr =  5.37E-13,  avg # of iterations =  5.9

     total cpu time spent up to now is      119.3 secs

     total energy              =    -184.83186045 Ry
     estimated scf accuracy    <          2.2E-10 Ry

     iteration #  8     ecut=   100.00 Ry     beta= 0.30
     Davidson diagonalization with overlap

---- Real-time Memory Report at c_bands before calling an iterative solver
            95 MiB given to the printing process from OS
            67 MiB allocation reported by mallinfo(arena+hblkhd)
        240545 MiB available memory on the node where the printing process lives
------------------
     ethr =  5.37E-13,  avg # of iterations =  2.0

     total cpu time spent up to now is      120.5 secs

     total energy              =    -184.83186045 Ry
     estimated scf accuracy    <          2.6E-10 Ry

     iteration #  9     ecut=   100.00 Ry     beta= 0.30
     Davidson diagonalization with overlap

---- Real-time Memory Report at c_bands before calling an iterative solver
            95 MiB given to the printing process from OS
            67 MiB allocation reported by mallinfo(arena+hblkhd)
        240544 MiB available memory on the node where the printing process lives
------------------
     ethr =  5.37E-13,  avg # of iterations =  2.1

     total cpu time spent up to now is      121.7 secs

     total energy              =    -184.83186045 Ry
     estimated scf accuracy    <          1.0E-10 Ry

     iteration # 10     ecut=   100.00 Ry     beta= 0.30
     Davidson diagonalization with overlap

---- Real-time Memory Report at c_bands before calling an iterative solver
            95 MiB given to the printing process from OS
            67 MiB allocation reported by mallinfo(arena+hblkhd)
        240543 MiB available memory on the node where the printing process lives
------------------
     ethr =  3.94E-13,  avg # of iterations =  4.6

     total cpu time spent up to now is      123.3 secs

[...]

     iteration # 59     ecut=   100.00 Ry     beta= 0.30
     Davidson diagonalization with overlap

---- Real-time Memory Report at c_bands before calling an iterative solver
            95 MiB given to the printing process from OS
            71 MiB allocation reported by mallinfo(arena+hblkhd)
        240555 MiB available memory on the node where the printing process lives
------------------
     ethr =  1.00E-13,  avg # of iterations =  1.0

     total cpu time spent up to now is      319.0 secs

     total energy              =    -184.83186294 Ry
     estimated scf accuracy    <          1.6E-17 Ry

     iteration # 60     ecut=   100.00 Ry     beta= 0.30
     Davidson diagonalization with overlap

---- Real-time Memory Report at c_bands before calling an iterative solver
            95 MiB given to the printing process from OS
            71 MiB allocation reported by mallinfo(arena+hblkhd)
        240555 MiB available memory on the node where the printing process lives
------------------
     ethr =  1.00E-13,  avg # of iterations =  1.0

     total cpu time spent up to now is      320.0 secs

     End of self-consistent calculation

          k = 0.0000 0.0000 0.0000 ( 20791 PWs)   bands (ev):

   -61.9145 -36.1174 -35.8587 -35.8587 -15.3999 -14.0344  -6.9477  -3.8226
    -3.8226  -3.0142  -2.6675  -2.6675  -1.2396

     occupation numbers 
     1.0000   1.0000   1.0000   1.0000   1.0000   1.0000   1.0000   1.0000
     1.0000   1.0000   1.0000   1.0000   1.0000

          k = 0.0000 0.0642 0.0000 ( 20785 PWs)   bands (ev):

   -61.9132 -36.1148 -35.8718 -35.8616 -15.3512 -14.0147  -6.8923  -3.9325
    -3.7715  -3.2948  -2.7467  -2.4566  -1.2577

     occupation numbers 
     1.0000   1.0000   1.0000   1.0000   1.0000   1.0000   1.0000   1.0000
     1.0000   1.0000   1.0000   1.0000   1.0000

          k = 0.0000 0.1283 0.0000 ( 20779 PWs)   bands (ev):

   -61.9094 -36.1073 -35.9097 -35.8702 -15.2086 -13.9568  -6.7367  -4.2231
    -3.7235  -3.6228  -2.9573  -2.2628  -1.3322

     occupation numbers 
     1.0000   1.0000   1.0000   1.0000   1.0000   1.0000   1.0000   1.0000
     1.0000   1.0000   1.0000   1.0000   1.0000

          k = 0.0000 0.1925 0.0000 ( 20771 PWs)   bands (ev):

   -61.9035 -36.0959 -35.9671 -35.8833 -14.9819 -13.8650  -6.5200  -4.6000
    -4.1744  -3.3910  -3.2415  -2.2504  -1.5093

     occupation numbers 
     1.0000   1.0000   1.0000   1.0000   1.0000   1.0000   1.0000   1.0000
     1.0000   1.0000   1.0000   1.0000   1.0000

          k = 0.0000 0.2566 0.0000 ( 20764 PWs)   bands (ev):

   -61.8963 -36.0817 -36.0370 -35.8993 -14.6879 -13.7465  -6.3370  -4.9373
    -4.6300  -3.5448  -3.1010  -2.4024  -1.7957

     occupation numbers 
     1.0000   1.0000   1.0000   1.0000   1.0000   1.0000   1.0000   1.0000
     1.0000   1.0000   1.0000   1.0000   1.0000

          k = 0.0000 0.3208 0.0000 ( 20704 PWs)   bands (ev):

   -61.8887 -36.1105 -36.0667 -35.9162 -14.3512 -13.6123  -6.3471  -5.1001
    -5.0750  -3.8286  -2.7892  -2.6221  -2.0839

     occupation numbers 
     1.0000   1.0000   1.0000   1.0000   1.0000   1.0000   1.0000   1.0000
     1.0000   1.0000   1.0000   1.0000   1.0000

          k = 0.0000 0.3849 0.0000 ( 20700 PWs)   bands (ev):

   -61.8814 -36.1788 -36.0525 -35.9321 -14.0058 -13.4772  -6.5679  -5.4828
    -5.1349  -4.0682  -2.8250  -2.5000  -2.2091

     occupation numbers 
     1.0000   1.0000   1.0000   1.0000   1.0000   1.0000   1.0000   1.0000
     1.0000   1.0000   1.0000   1.0000   1.0000

          k = 0.0000 0.4491 0.0000 ( 20654 PWs)   bands (ev):

   -61.8756 -36.2339 -36.0409 -35.9450 -13.6966 -13.3594  -6.8391  -5.8158
    -5.2053  -4.2481  -2.9732  -2.2743  -2.1142

     occupation numbers 
     1.0000   1.0000   1.0000   1.0000   1.0000   1.0000   1.0000   1.0000
     1.0000   1.0000   1.0000   1.0000   1.0000

          k = 0.0000 0.5132 0.0000 ( 20642 PWs)   bands (ev):

   -61.8717 -36.2697 -36.0333 -35.9534 -13.4773 -13.2782  -7.0450  -6.0351
    -5.3016  -4.3593  -3.0596  -2.1361  -1.9302

     occupation numbers 
     1.0000   1.0000   1.0000   1.0000   1.0000   1.0000   1.0000   1.0000
     1.0000   1.0000   1.0000   1.0000   1.0000

          k = 0.0000-0.5774 0.0000 ( 20610 PWs)   bands (ev):

   -61.8704 -36.2821 -36.0306 -35.9563 -13.3972 -13.2491  -7.1216  -6.1118
    -5.3447  -4.3969  -3.0876  -2.0904  -1.8417

     occupation numbers 
     1.0000   1.0000   1.0000   1.0000   1.0000   1.0000   1.0000   1.0000
     1.0000   1.0000   1.0000   1.0000   1.0000

          k = 0.0556 0.0962 0.0000 ( 20791 PWs)   bands (ev):

   -61.9106 -36.1098 -35.8970 -35.8677 -15.2556 -13.9759  -6.7865  -4.1314
    -3.6728  -3.5963  -2.9194  -2.2772  -1.3039

     occupation numbers 
     1.0000   1.0000   1.0000   1.0000   1.0000   1.0000   1.0000   1.0000
     1.0000   1.0000   1.0000   1.0000   1.0000

          k = 0.0556 0.1604 0.0000 ( 20790 PWs)   bands (ev):

   -61.9058 -36.1003 -35.9439 -35.8794 -15.0708 -13.9010  -6.5975  -4.4610
    -3.9828  -3.4879  -3.2241  -2.1605  -1.4300

     occupation numbers 
     1.0000   1.0000   1.0000   1.0000   1.0000   1.0000   1.0000   1.0000
     1.0000   1.0000   1.0000   1.0000   1.0000

          k = 0.0556 0.2245 0.0000 ( 20759 PWs)   bands (ev):

   -61.8993 -36.0875 -36.0064 -35.8950 -14.8102 -13.7955  -6.3872  -4.8134
    -4.4028  -3.5634  -3.2421  -2.2100  -1.6657

     occupation numbers 
     1.0000   1.0000   1.0000   1.0000   1.0000   1.0000   1.0000   1.0000
     1.0000   1.0000   1.0000   1.0000   1.0000

          k = 0.0556 0.2887 0.0000 ( 20730 PWs)   bands (ev):

   -61.8918 -36.0767 -36.0729 -35.9128 -14.4941 -13.6683  -6.2901  -5.0490
    -4.8468  -3.8642  -2.9812  -2.3942  -1.9515

     occupation numbers 
     1.0000   1.0000   1.0000   1.0000   1.0000   1.0000   1.0000   1.0000
     1.0000   1.0000   1.0000   1.0000   1.0000

          k = 0.0556 0.3528 0.0000 ( 20684 PWs)   bands (ev):

   -61.8844 -36.1463 -36.0583 -35.9306 -14.1514 -13.5323  -6.4226  -5.2878
    -5.1034  -4.0948  -2.7752  -2.6257  -2.1115

     occupation numbers 
     1.0000   1.0000   1.0000   1.0000   1.0000   1.0000   1.0000   1.0000
     1.0000   1.0000   1.0000   1.0000   1.0000

          k = 0.0556 0.4170 0.0000 ( 20682 PWs)   bands (ev):

   -61.8778 -36.2069 -36.0453 -35.9461 -13.8213 -13.4040  -6.6787  -5.6791
    -5.1382  -4.2551  -2.8357  -2.6355  -2.0400

     occupation numbers 
     1.0000   1.0000   1.0000   1.0000   1.0000   1.0000   1.0000   1.0000
     1.0000   1.0000   1.0000   1.0000   1.0000

          k = 0.0556 0.4811 0.0000 ( 20654 PWs)   bands (ev):

   -61.8730 -36.2515 -36.0357 -35.9576 -13.5534 -13.3025  -6.9164  -5.9724
    -5.2339  -4.3547  -2.9878  -2.4960  -1.8642

     occupation numbers 
     1.0000   1.0000   1.0000   1.0000   1.0000   1.0000   1.0000   1.0000
     1.0000   1.0000   1.0000   1.0000   1.0000

          k = 0.0556 0.5453 0.0000 ( 20635 PWs)   bands (ev):

   -61.8704 -36.2751 -36.0306 -35.9637 -13.4009 -13.2461  -7.0562  -6.1296
    -5.3151  -4.4021  -3.0664  -2.4045  -1.7234

     occupation numbers 
     1.0000   1.0000   1.0000   1.0000   1.0000   1.0000   1.0000   1.0000
     1.0000   1.0000   1.0000   1.0000   1.0000

          k = 0.1111 0.1925 0.0000 ( 20743 PWs)   bands (ev):

   -61.9003 -36.0895 -35.9943 -35.8950 -14.8519 -13.8121  -6.4071  -4.7603
    -4.2733  -3.6606  -3.3010  -2.0819  -1.6175

     occupation numbers 
     1.0000   1.0000   1.0000   1.0000   1.0000   1.0000   1.0000   1.0000
     1.0000   1.0000   1.0000   1.0000   1.0000

          k = 0.1111 0.2566 0.0000 ( 20724 PWs)   bands (ev):

   -61.8935 -36.0762 -36.0548 -35.9150 -14.5683 -13.6971  -6.2607  -4.9995
    -4.6233  -4.0656  -3.1236  -2.1431  -1.8624

     occupation numbers 
     1.0000   1.0000   1.0000   1.0000   1.0000   1.0000   1.0000   1.0000
     1.0000   1.0000   1.0000   1.0000   1.0000

          k = 0.1111 0.3208 0.0000 ( 20718 PWs)   bands (ev):

   -61.8863 -36.1182 -36.0620 -35.9365 -14.2441 -13.5664  -6.2959  -5.0774
    -5.0628  -4.2999  -3.0491  -2.3345  -2.0240

     occupation numbers 
     1.0000   1.0000   1.0000   1.0000   1.0000   1.0000   1.0000   1.0000
     1.0000   1.0000   1.0000   1.0000   1.0000

          k = 0.1111 0.3849 0.0000 ( 20674 PWs)   bands (ev):

   -61.8795 -36.1772 -36.0487 -35.9568 -13.9128 -13.4342  -6.4923  -5.5409
    -5.0449  -4.4025  -3.0670  -2.5850  -1.9935

     occupation numbers 
     1.0000   1.0000   1.0000   1.0000   1.0000   1.0000   1.0000   1.0000
     1.0000   1.0000   1.0000   1.0000   1.0000

          k = 0.1111 0.4491 0.0000 ( 20655 PWs)   bands (ev):

   -61.8740 -36.2248 -36.0378 -35.9733 -13.6179 -13.3184  -6.7141  -5.9231
    -5.1120  -4.4312  -3.0332  -2.8250  -1.8429

     occupation numbers 
     1.0000   1.0000   1.0000   1.0000   1.0000   1.0000   1.0000   1.0000
     1.0000   1.0000   1.0000   1.0000   1.0000

          k = 0.1111 0.5132 0.0000 ( 20647 PWs)   bands (ev):

   -61.8704 -36.2557 -36.0307 -35.9841 -13.4100 -13.2383  -6.8775  -6.1724
    -5.2262  -4.4244  -2.9993  -2.9624  -1.6685

     occupation numbers 
     1.0000   1.0000   1.0000   1.0000   1.0000   1.0000   1.0000   1.0000
     1.0000   1.0000   1.0000   1.0000   1.0000

          k = 0.1111 0.5774 0.0000 ( 20642 PWs)   bands (ev):

   -61.8691 -36.2664 -36.0282 -35.9878 -13.3345 -13.2096  -6.9374  -6.2590
    -5.2785  -4.4166  -3.0638  -2.9315  -1.5867

     occupation numbers 
     1.0000   1.0000   1.0000   1.0000   1.0000   1.0000   1.0000   1.0000
     1.0000   1.0000   1.0000   1.0000   1.0000

          k = 0.1667 0.2887 0.0000 ( 20715 PWs)   bands (ev):

   -61.8870 -36.1065 -36.0634 -35.9406 -14.2759 -13.5778  -6.2447  -5.0435
    -4.9464  -4.4449  -3.1578  -2.1985  -1.9943

     occupation numbers 
     1.0000   1.0000   1.0000   1.0000   1.0000   1.0000   1.0000   1.0000
     1.0000   1.0000   1.0000   1.0000   1.0000

          k = 0.1667 0.3528 0.0000 ( 20693 PWs)   bands (ev):

   -61.8804 -36.1561 -36.0505 -35.9678 -13.9611 -13.4493  -6.3622  -5.4290
    -4.9644  -4.5533  -3.3591  -2.3877  -1.9844

     occupation numbers 
     1.0000   1.0000   1.0000   1.0000   1.0000   1.0000   1.0000   1.0000
     1.0000   1.0000   1.0000   1.0000   1.0000

          k = 0.1667 0.4170 0.0000 ( 20650 PWs)   bands (ev):

   -61.8747 -36.1985 -36.0391 -35.9927 -13.6609 -13.3270  -6.5192  -5.8821
    -4.9493  -4.5350  -3.5343  -2.6483  -1.8670

     occupation numbers 
     1.0000   1.0000   1.0000   1.0000   1.0000   1.0000   1.0000   1.0000
     1.0000   1.0000   1.0000   1.0000   1.0000

          k = 0.1667 0.4811 0.0000 ( 20655 PWs)   bands (ev):

   -61.8704 -36.2294 -36.0307 -36.0115 -13.4204 -13.2295  -6.6443  -6.2179
    -5.0728  -4.4622  -3.5748  -2.9019  -1.6827

     occupation numbers 
     1.0000   1.0000   1.0000   1.0000   1.0000   1.0000   1.0000   1.0000
     1.0000   1.0000   1.0000   1.0000   1.0000

          k = 0.1667 0.5453 0.0000 ( 20653 PWs)   bands (ev):

   -61.8681 -36.2456 -36.0262 -36.0216 -13.2850 -13.1750  -6.7100  -6.3958
    -5.1961  -4.3945  -3.5622  -3.0659  -1.5245

     occupation numbers 
     1.0000   1.0000   1.0000   1.0000   1.0000   1.0000   1.0000   1.0000
     1.0000   1.0000   1.0000   1.0000   1.0000

          k = 0.2222 0.3849 0.0000 ( 20657 PWs)   bands (ev):

   -61.8749 -36.1867 -36.0396 -36.0022 -13.6759 -13.3296  -6.4364  -5.8645
    -4.8463  -4.5821  -3.7696  -2.5714  -1.8822

     occupation numbers 
     1.0000   1.0000   1.0000   1.0000   1.0000   1.0000   1.0000   1.0000
     1.0000   1.0000   1.0000   1.0000   1.0000

          k = 0.2222 0.4491 0.0000 ( 20658 PWs)   bands (ev):

   -61.8704 -36.2078 -36.0338 -36.0307 -13.4270 -13.2237  -6.4691  -6.2460
    -4.8648  -4.4921  -4.0777  -2.8272  -1.7075

     occupation numbers 
     1.0000   1.0000   1.0000   1.0000   1.0000   1.0000   1.0000   1.0000
     1.0000   1.0000   1.0000   1.0000   1.0000

          k = 0.2222 0.5132 0.0000 ( 20678 PWs)   bands (ev):

   -61.8674 -36.2195 -36.0564 -36.0249 -13.2551 -13.1498  -6.4990  -6.4525
    -5.0552  -4.3645  -4.1712  -3.0659  -1.4965

     occupation numbers 
     1.0000   1.0000   1.0000   1.0000   1.0000   1.0000   1.0000   1.0000
     1.0000   1.0000   1.0000   1.0000   1.0000

          k = 0.2222 0.5774 0.0000 ( 20668 PWs)   bands (ev):

   -61.8664 -36.2231 -36.0647 -36.0229 -13.1935 -13.1231  -6.5872  -6.4327
    -5.1652  -4.2986  -4.1807  -3.1711  -1.3916

     occupation numbers 
     1.0000   1.0000   1.0000   1.0000   1.0000   1.0000   1.0000   1.0000
     1.0000   1.0000   1.0000   1.0000   1.0000

          k = 0.2778 0.4811 0.0000 ( 20690 PWs)   bands (ev):

   -61.8672 -36.2054 -36.0736 -36.0244 -13.2453 -13.1406  -6.5371  -6.3280
    -4.8932  -4.5302  -4.3518  -3.0646  -1.4879

     occupation numbers 
     1.0000   1.0000   1.0000   1.0000   1.0000   1.0000   1.0000   1.0000
     1.0000   1.0000   1.0000   1.0000   1.0000

          k = 0.2778 0.5453 0.0000 ( 20706 PWs)   bands (ev):

   -61.8655 -36.1974 -36.1016 -36.0211 -13.1455 -13.0937  -6.6962  -6.1491
    -5.1592  -4.6369  -4.2117  -3.2575  -1.2949

     occupation numbers 
     1.0000   1.0000   1.0000   1.0000   1.0000   1.0000   1.0000   1.0000
     1.0000   1.0000   1.0000   1.0000   1.0000

          k = 0.3333 0.5774 0.0000 ( 20736 PWs)   bands (ev):

   -61.8648 -36.1781 -36.1288 -36.0198 -13.1072 -13.0734  -6.7667  -5.9013
    -5.3795  -4.7591  -4.1262  -3.3563  -1.1948

     occupation numbers 
     1.0000   1.0000   1.0000   1.0000   1.0000   1.0000   1.0000   1.0000
     1.0000   1.0000   1.0000   1.0000   1.0000

     highest occupied level (ev):    -1.1948

!    total energy              =    -184.83186294 Ry
     estimated scf accuracy    <          9.0E-18 Ry

     The total energy is the sum of the following terms:
     one-electron contribution =   -1240.11121857 Ry
     hartree contribution      =     620.19340385 Ry
     xc contribution           =     -33.15858750 Ry
     ewald contribution        =     468.24453929 Ry

     convergence has been achieved in  60 iterations

     Forces acting on atoms (cartesian axes, Ry/au):

     atom    1 type  1   force =    -0.00000000   -0.00000000    0.00000000
     atom    2 type  2   force =    -0.00000000   -0.00000000    0.00000016
     atom    3 type  2   force =     0.00000000    0.00000000   -0.00000016
     The non-local contrib.  to forces
     atom    1 type  1   force =     0.00000000   -0.00000000    0.00000000
     atom    2 type  2   force =     0.00000000   -0.00000000   -0.25645061
     atom    3 type  2   force =     0.00000000    0.00000000    0.25645061
     The ionic contribution  to forces
     atom    1 type  1   force =     0.00000000   -0.00000000    0.00000000
     atom    2 type  2   force =    -0.00000000    0.00000000   37.34413634
     atom    3 type  2   force =    -0.00000000    0.00000000  -37.34413634
     The local contribution  to forces
     atom    1 type  1   force =     0.00000000   -0.00000000   -0.00000000
     atom    2 type  2   force =    -0.00000000    0.00000000  -37.09192328
     atom    3 type  2   force =    -0.00000000    0.00000000   37.09192328
     The core correction contribution to forces
     atom    1 type  1   force =    -0.00000000    0.00000000    0.00000000
     atom    2 type  2   force =     0.00000000   -0.00000000    0.00423771
     atom    3 type  2   force =     0.00000000   -0.00000000   -0.00423771
     The Hubbard contrib.    to forces
     atom    1 type  1   force =     0.00000000    0.00000000    0.00000000
     atom    2 type  2   force =     0.00000000    0.00000000    0.00000000
     atom    3 type  2   force =     0.00000000    0.00000000    0.00000000
     The SCF correction term to forces
     atom    1 type  1   force =    -0.00000000    0.00000000   -0.00000000
     atom    2 type  2   force =     0.00000000   -0.00000000   -0.00000000
     atom    3 type  2   force =    -0.00000000    0.00000000    0.00000000

     Total force =     0.000000     Total SCF correction =     0.000000
     Message from routine bfgs:
     history already reset at previous step: exiting
     Energy error            =      3.0E-12 Ry
     Gradient error          =      1.6E-07 Ry/Bohr

     bfgs failed after   6 scf cycles and   5 bfgs steps, convergence not achieved
     (criteria: energy <  1.0E-10 Ry, force <  1.0E-07 Ry/Bohr)

     End of BFGS Geometry Optimization

     Final energy             =    -184.8318629367 Ry

     File ./tmp/MoS2.bfgs deleted, as requested
Begin final coordinates

ATOMIC_POSITIONS (crystal)
Mo               0.3333333333        0.6666666667        0.0000000000
S                0.6666666667        0.3333333333        0.0735291596    0   0   1
S                0.6666666667        0.3333333333       -0.0735291596    0   0   1
End final coordinates



     Writing all to output data dir ./tmp/MoS2.save/ :
     XML data file, charge density, pseudopotentials, collected wavefunctions

     init_run     :      2.54s CPU      2.93s WALL (       1 calls)
     electrons    :    284.63s CPU    298.74s WALL (       6 calls)
     update_pot   :      0.18s CPU      0.19s WALL (       5 calls)
     forces       :      0.68s CPU      0.69s WALL (       6 calls)

     Called by init_run:
     wfcinit      :      0.57s CPU      0.62s WALL (       1 calls)
     wfcinit:atom :      0.01s CPU      0.01s WALL (      37 calls)
     wfcinit:wfcr :      0.53s CPU      0.58s WALL (      37 calls)
     potinit      :      0.65s CPU      0.65s WALL (       1 calls)
     hinit0       :      0.69s CPU      0.75s WALL (       1 calls)

     Called by electrons:
     c_bands      :    219.58s CPU    231.50s WALL (     245 calls)
     sum_band     :     39.50s CPU     40.50s WALL (     245 calls)
     v_of_rho     :      7.33s CPU      7.46s WALL (     246 calls)
     v_h          :      0.60s CPU      0.60s WALL (     246 calls)
     v_xc         :      6.89s CPU      7.02s WALL (     252 calls)
     mix_rho      :     16.62s CPU     16.83s WALL (     245 calls)

     Called by c_bands:
     init_us_2    :      4.44s CPU      4.78s WALL (   18389 calls)
     cegterg      :    205.83s CPU    212.01s WALL (    9065 calls)

     Called by sum_band:
     sum_band:wei :      0.00s CPU      0.00s WALL (     245 calls)
     sum_band:loo :     38.61s CPU     39.59s WALL (     245 calls)
     sum_band:buf :      0.20s CPU      0.21s WALL (    9065 calls)
     sum_band:ini :      2.20s CPU      2.26s WALL (    9065 calls)

     Called by *egterg:
     cdiaghg      :      9.43s CPU      9.76s WALL (   24761 calls)
     cegterg:over :      4.94s CPU      5.05s WALL (   16066 calls)
     cegterg:upda :      1.50s CPU      1.54s WALL (   16066 calls)
     cegterg:last :      1.68s CPU      1.72s WALL (   12889 calls)
     h_psi        :    183.88s CPU    189.51s WALL (   25168 calls)
     g_psi        :      0.32s CPU      0.33s WALL (   16066 calls)

     Called by h_psi:
     h_psi:calbec :      9.76s CPU     10.00s WALL (   25168 calls)
     vloc_psi     :    169.26s CPU    174.52s WALL (   25168 calls)
                                        0.00s GPU  (   25168 calls)
     add_vuspsi   :      4.21s CPU      4.32s WALL (   25168 calls)

     General routines
     calbec       :      9.93s CPU     10.18s WALL (   26056 calls)
     fft          :      4.72s CPU      4.83s WALL (    3010 calls)
     ffts         :     10.59s CPU     10.71s WALL (   21211 calls)
     fftw         :    189.90s CPU    195.52s WALL (  653683 calls)
     interpolate  :      1.29s CPU      1.30s WALL (     246 calls)
     davcio       :      0.00s CPU      0.01s WALL (      37 calls)

     Parallel routines

     PWSCF        :   4m55.18s CPU   5m21.52s WALL


   This run was terminated on:  17:27:36   5Mar2026            

=------------------------------------------------------------------------------=
   JOB DONE.
=------------------------------------------------------------------------------=
