[prun] Resource manager = slurm
[prun] Launch cmd = srun --mpi=pmix ph.x -npool 8 -inp MoS2.ph.in (family=openmpi4)

     Program PHONON v.7.3.1 starts on  9Mar2026 at 11:33:34 

     This program is part of the open-source Quantum ESPRESSO suite
     for quantum simulation of materials; please cite
         "P. Giannozzi et al., J. Phys.:Condens. Matter 21 395502 (2009);
         "P. Giannozzi et al., J. Phys.:Condens. Matter 29 465901 (2017);
         "P. Giannozzi et al., J. Chem. Phys. 152 154105 (2020);
          URL http://www.quantum-espresso.org", 
     in publications or presentations arising from this work. More details at
     http://www.quantum-espresso.org/quote

     Parallel version (MPI & OpenMP), running on     128 processor cores
     Number of MPI processes:               128
     Threads/MPI process:                     1

     MPI processes distributed on     8 nodes
     28930 MiB available memory on the printing compute node when the environment starts

     Reading input from MoS2.ph.in
      Title line not specified: using 'default'.

     Reading xml data from directory:

     ./MoS2.save/

     K-points division:     npool     =       8
     R & G space division:  proc/nbgrp/npool/nimage =      16
     Subspace diagonalization in iterative solution of the eigenvalue problem:
     a serial algorithm will be used


     IMPORTANT: XC functional enforced from input :
     Exchange-correlation= PBESOL
                           (   1   4  10   8   0   0   0)
     Any further DFT definition will be discarded
     Please, verify this is what you really want


     Parallelization info
     --------------------
     sticks:   dense  smooth     PW     G-vecs:    dense   smooth      PW
     Min          48      48     13                 7382     7382    1141
     Max          49      49     14                 7411     7411    1166
     Sum         769     769    223               118307   118307   18477

     Using Slab Decomposition

 ----2D----2D----2D----2D----2D----2D----2D----2D----2D----2D----2D----2D
  The code is running with the 2D cutoff
  Please refer to:
  Sohier, T., Calandra, M., & Mauri, F. (2017), 
  Density functional perturbation theory for gated two-dimensional heterostructures:
  Theoretical developments and application to flexural phonons in graphene.
  Physical Review B, 96(7), 75448. https://doi.org/10.1103/PhysRevB.96.075448
 ----2D----2D----2D----2D----2D----2D----2D----2D----2D----2D----2D----2D
     Reading collected, re-writing distributed wavefunctions in ./

     Saving dvscf to file. Distribute only q points, not irreducible representations.
        5 /   7 q-points for this run, from  3 to  7:
       N       xq(1)         xq(2)         xq(3) 
       1   0.000000000   0.000000000   0.000000000
       2   0.000000000   0.192450090   0.000000000
       3   0.000000000   0.384900179   0.000000000
       4   0.000000000  -0.577350269   0.000000000
       5   0.166666667   0.288675135   0.000000000
       6   0.166666667   0.481125224   0.000000000
       7   0.333333333   0.577350269   0.000000000


     Calculation of q =    0.0000000   0.3849002   0.0000000

     Bands found: reading from ./_ph0/MoS2.q_3/

     Reading xml data from directory:

     ./_ph0/MoS2.q_3/MoS2.save/
     Message from routine qexsd_readschema :
     input info not found or not readable in xml file

     IMPORTANT: XC functional enforced from input :
     Exchange-correlation= PBESOL
                           (   1   4  10   8   0   0   0)
     Any further DFT definition will be discarded
     Please, verify this is what you really want


     Parallelization info
     --------------------
     sticks:   dense  smooth     PW     G-vecs:    dense   smooth      PW
     Min          48      48     15                 7382     7382    1301
     Max          49      49     16                 7411     7411    1322
     Sum         769     769    253               118307   118307   20923

     Using Slab Decomposition

 ----2D----2D----2D----2D----2D----2D----2D----2D----2D----2D----2D----2D
  The code is running with the 2D cutoff
  Please refer to:
  Sohier, T., Calandra, M., & Mauri, F. (2017), 
  Density functional perturbation theory for gated two-dimensional heterostructures:
  Theoretical developments and application to flexural phonons in graphene.
  Physical Review B, 96(7), 75448. https://doi.org/10.1103/PhysRevB.96.075448
 ----2D----2D----2D----2D----2D----2D----2D----2D----2D----2D----2D----2D
     read_file_new: Wavefunctions not in collected format?!?
     read_file: Wavefunctions in collected format not available

     Restart in Phonon calculation

     default                                                                    

     bravais-lattice index     =            4
     lattice parameter (alat)  =       5.9477  a.u.
     unit-cell volume          =    1225.4506 (a.u.)^3
     number of atoms/cell      =            3
     number of atomic types    =            2
     kinetic-energy cut-off    =      80.0000  Ry
     charge density cut-off    =     320.0000  Ry
     convergence threshold     =      1.0E-14
     beta                      =       0.7000
     number of iterations used =           16
     Exchange-correlation= PBESOL
                           (   1   4  10   8   0   0   0)


     celldm(1)=    5.94775  celldm(2)=    0.00000  celldm(3)=    6.72523
     celldm(4)=    0.00000  celldm(5)=    0.00000  celldm(6)=    0.00000

     crystal axes: (cart. coord. in units of alat)
               a(1) = (  1.0000  0.0000  0.0000 )  
               a(2) = ( -0.5000  0.8660  0.0000 )  
               a(3) = (  0.0000  0.0000  6.7252 )  

     reciprocal axes: (cart. coord. in units 2 pi/alat)
               b(1) = (  1.0000  0.5774 -0.0000 )  
               b(2) = (  0.0000  1.1547  0.0000 )  
               b(3) = (  0.0000 -0.0000  0.1487 )  


     Atoms inside the unit cell: 

     Cartesian axes

     site n.  atom      mass           positions (alat units)
        1  Mo     95.9500   tau(    1) = (    0.00000    0.57735    0.00000  )
        2  S      32.0650   tau(    2) = (    0.50000    0.28868    0.49450  )
        3  S      32.0650   tau(    3) = (    0.50000    0.28868   -0.49450  )

     Computing dynamical matrix for 
                    q = (   0.0000000   0.3849002   0.0000000 )

      4 Sym.Ops. (no q -> -q+G )

                                    s                        frac. trans.

      isym =  1     identity                                     

 cryst.   s( 1) = (     1          0          0      )
                  (     0          1          0      )
                  (     0          0          1      )

 cart.    s( 1) = (  1.0000000  0.0000000  0.0000000 )
                  (  0.0000000  1.0000000  0.0000000 )
                  (  0.0000000  0.0000000  1.0000000 )


      isym =  2     inv. 180 deg rotation - cart. axis [0,0,1]   

 cryst.   s( 2) = (     1          0          0      )
                  (     0          1          0      )
                  (     0          0         -1      )

 cart.    s( 2) = (  1.0000000  0.0000000  0.0000000 )
                  (  0.0000000  1.0000000  0.0000000 )
                  (  0.0000000  0.0000000 -1.0000000 )


      isym =  3     180 deg rotation - cart. axis [0,1,0]        

 cryst.   s( 3) = (    -1          0          0      )
                  (     1          1          0      )
                  (     0          0         -1      )

 cart.    s( 3) = ( -1.0000000  0.0000000  0.0000000 )
                  (  0.0000000  1.0000000  0.0000000 )
                  (  0.0000000  0.0000000 -1.0000000 )


      isym =  4     inv. 180 deg rotation - cart. axis [1,0,0]   

 cryst.   s( 4) = (    -1          0          0      )
                  (     1          1          0      )
                  (     0          0          1      )

 cart.    s( 4) = ( -1.0000000  0.0000000  0.0000000 )
                  (  0.0000000  1.0000000  0.0000000 )
                  (  0.0000000  0.0000000  1.0000000 )


     G cutoff =  286.7447  (   7398 G-vectors)     FFT grid: ( 36, 36,240)
     number of k points=   342
                       cart. coord. in units 2pi/alat
        k(    1) = (   0.0000000   0.0000000   0.0000000), wk =   0.0061728
        k(    2) = (   0.0000000   0.3849002   0.0000000), wk =   0.0000000
        k(    3) = (   0.0000000   0.0641500   0.0000000), wk =   0.0061728
        k(    4) = (   0.0000000   0.4490502   0.0000000), wk =   0.0000000
        k(    5) = (   0.0000000   0.1283001   0.0000000), wk =   0.0061728
        k(    6) = (   0.0000000   0.5132002   0.0000000), wk =   0.0000000
        k(    7) = (   0.0000000   0.1924501   0.0000000), wk =   0.0061728
        k(    8) = (   0.0000000   0.5773503   0.0000000), wk =   0.0000000
        k(    9) = (   0.0000000   0.2566001   0.0000000), wk =   0.0061728
        k(   10) = (   0.0000000   0.6415003   0.0000000), wk =   0.0000000
        k(   11) = (   0.0000000   0.3207501   0.0000000), wk =   0.0061728
        k(   12) = (   0.0000000   0.7056503   0.0000000), wk =   0.0000000
        k(   13) = (   0.0000000   0.3849002   0.0000000), wk =   0.0061728
        k(   14) = (   0.0000000   0.7698004   0.0000000), wk =   0.0000000
        k(   15) = (   0.0000000   0.4490502   0.0000000), wk =   0.0061728
        k(   16) = (   0.0000000   0.8339504   0.0000000), wk =   0.0000000
        k(   17) = (   0.0000000   0.5132002   0.0000000), wk =   0.0061728
        k(   18) = (   0.0000000   0.8981004   0.0000000), wk =   0.0000000
        k(   19) = (   0.0000000  -0.5773503   0.0000000), wk =   0.0061728
        k(   20) = (   0.0000000  -0.1924501   0.0000000), wk =   0.0000000
        k(   21) = (   0.0555556   0.0962250   0.0000000), wk =   0.0123457
        k(   22) = (   0.0555556   0.4811252   0.0000000), wk =   0.0000000
        k(   23) = (   0.0555556   0.1603751   0.0000000), wk =   0.0123457
        k(   24) = (   0.0555556   0.5452753   0.0000000), wk =   0.0000000
        k(   25) = (   0.0555556   0.2245251   0.0000000), wk =   0.0123457
        k(   26) = (   0.0555556   0.6094253   0.0000000), wk =   0.0000000
        k(   27) = (   0.0555556   0.2886751   0.0000000), wk =   0.0123457
        k(   28) = (   0.0555556   0.6735753   0.0000000), wk =   0.0000000
        k(   29) = (   0.0555556   0.3528252   0.0000000), wk =   0.0123457
        k(   30) = (   0.0555556   0.7377253   0.0000000), wk =   0.0000000
        k(   31) = (   0.0555556   0.4169752   0.0000000), wk =   0.0123457
        k(   32) = (   0.0555556   0.8018754   0.0000000), wk =   0.0000000
        k(   33) = (   0.0555556   0.4811252   0.0000000), wk =   0.0123457
        k(   34) = (   0.0555556   0.8660254   0.0000000), wk =   0.0000000
        k(   35) = (   0.0555556   0.5452753   0.0000000), wk =   0.0123457
        k(   36) = (   0.0555556   0.9301754   0.0000000), wk =   0.0000000
        k(   37) = (   0.1111111   0.1924501   0.0000000), wk =   0.0123457
        k(   38) = (   0.1111111   0.5773503   0.0000000), wk =   0.0000000
        k(   39) = (   0.1111111   0.2566001   0.0000000), wk =   0.0123457
        k(   40) = (   0.1111111   0.6415003   0.0000000), wk =   0.0000000
        k(   41) = (   0.1111111   0.3207501   0.0000000), wk =   0.0123457
        k(   42) = (   0.1111111   0.7056503   0.0000000), wk =   0.0000000
        k(   43) = (   0.1111111   0.3849002   0.0000000), wk =   0.0123457
        k(   44) = (   0.1111111   0.7698004   0.0000000), wk =   0.0000000
        k(   45) = (   0.1111111   0.4490502   0.0000000), wk =   0.0123457
        k(   46) = (   0.1111111   0.8339504   0.0000000), wk =   0.0000000
        k(   47) = (   0.1111111   0.5132002   0.0000000), wk =   0.0123457
        k(   48) = (   0.1111111   0.8981004   0.0000000), wk =   0.0000000
        k(   49) = (   0.1111111   0.5773503   0.0000000), wk =   0.0123457
        k(   50) = (   0.1111111   0.9622504   0.0000000), wk =   0.0000000
        k(   51) = (   0.1666667   0.2886751   0.0000000), wk =   0.0123457
        k(   52) = (   0.1666667   0.6735753   0.0000000), wk =   0.0000000
        k(   53) = (   0.1666667   0.3528252   0.0000000), wk =   0.0123457
        k(   54) = (   0.1666667   0.7377253   0.0000000), wk =   0.0000000
        k(   55) = (   0.1666667   0.4169752   0.0000000), wk =   0.0123457
        k(   56) = (   0.1666667   0.8018754   0.0000000), wk =   0.0000000
        k(   57) = (   0.1666667   0.4811252   0.0000000), wk =   0.0123457
        k(   58) = (   0.1666667   0.8660254   0.0000000), wk =   0.0000000
        k(   59) = (   0.1666667   0.5452753   0.0000000), wk =   0.0123457
        k(   60) = (   0.1666667   0.9301754   0.0000000), wk =   0.0000000
        k(   61) = (   0.2222222   0.3849002   0.0000000), wk =   0.0123457
        k(   62) = (   0.2222222   0.7698004   0.0000000), wk =   0.0000000
        k(   63) = (   0.2222222   0.4490502   0.0000000), wk =   0.0123457
        k(   64) = (   0.2222222   0.8339504   0.0000000), wk =   0.0000000
        k(   65) = (   0.2222222   0.5132002   0.0000000), wk =   0.0123457
        k(   66) = (   0.2222222   0.8981004   0.0000000), wk =   0.0000000
        k(   67) = (   0.2222222   0.5773503   0.0000000), wk =   0.0123457
        k(   68) = (   0.2222222   0.9622504   0.0000000), wk =   0.0000000
        k(   69) = (   0.2777778   0.4811252   0.0000000), wk =   0.0123457
        k(   70) = (   0.2777778   0.8660254   0.0000000), wk =   0.0000000
        k(   71) = (   0.2777778   0.5452753   0.0000000), wk =   0.0123457
        k(   72) = (   0.2777778   0.9301754   0.0000000), wk =   0.0000000
        k(   73) = (   0.3333333   0.5773503   0.0000000), wk =   0.0123457
        k(   74) = (   0.3333333   0.9622504   0.0000000), wk =   0.0000000
        k(   75) = (   0.0555556  -0.0320750   0.0000000), wk =   0.0123457
        k(   76) = (   0.0555556   0.3528252   0.0000000), wk =   0.0000000
        k(   77) = (   0.0000000  -0.0641500   0.0000000), wk =   0.0061728
        k(   78) = (   0.0000000   0.3207501   0.0000000), wk =   0.0000000
        k(   79) = (  -0.0555556   0.0320750   0.0000000), wk =   0.0123457
        k(   80) = (  -0.0555556   0.4169752   0.0000000), wk =   0.0000000
        k(   81) = (   0.1111111  -0.0641500   0.0000000), wk =   0.0123457
        k(   82) = (   0.1111111   0.3207501   0.0000000), wk =   0.0000000
        k(   83) = (   0.0000000  -0.1283001   0.0000000), wk =   0.0061728
        k(   84) = (   0.0000000   0.2566001   0.0000000), wk =   0.0000000
        k(   85) = (  -0.1111111   0.0641500   0.0000000), wk =   0.0123457
        k(   86) = (  -0.1111111   0.4490502   0.0000000), wk =   0.0000000
        k(   87) = (   0.1666667  -0.0962250   0.0000000), wk =   0.0123457
        k(   88) = (   0.1666667   0.2886751   0.0000000), wk =   0.0000000
        k(   89) = (   0.0000000  -0.1924501   0.0000000), wk =   0.0061728
        k(   90) = (   0.0000000   0.1924501   0.0000000), wk =   0.0000000
        k(   91) = (  -0.1666667   0.0962250   0.0000000), wk =   0.0123457
        k(   92) = (  -0.1666667   0.4811252   0.0000000), wk =   0.0000000
        k(   93) = (   0.2222222  -0.1283001   0.0000000), wk =   0.0123457
        k(   94) = (   0.2222222   0.2566001   0.0000000), wk =   0.0000000
        k(   95) = (   0.0000000  -0.2566001   0.0000000), wk =   0.0061728
        k(   96) = (   0.0000000   0.1283001   0.0000000), wk =   0.0000000
        k(   97) = (  -0.2222222   0.1283001   0.0000000), wk =   0.0123457
        k(   98) = (  -0.2222222   0.5132002   0.0000000), wk =   0.0000000
        k(   99) = (   0.2777778  -0.1603751   0.0000000), wk =   0.0123457
        k(  100) = (   0.2777778   0.2245251   0.0000000), wk =   0.0000000
        k(  101) = (   0.0000000  -0.3207501   0.0000000), wk =   0.0061728
        k(  102) = (   0.0000000   0.0641500   0.0000000), wk =   0.0000000
        k(  103) = (  -0.2777778   0.1603751   0.0000000), wk =   0.0123457
        k(  104) = (  -0.2777778   0.5452753   0.0000000), wk =   0.0000000
        k(  105) = (   0.3333333  -0.1924501   0.0000000), wk =   0.0123457
        k(  106) = (   0.3333333   0.1924501   0.0000000), wk =   0.0000000
        k(  107) = (   0.0000000  -0.3849002   0.0000000), wk =   0.0061728
        k(  108) = (   0.0000000   0.0000000   0.0000000), wk =   0.0000000
        k(  109) = (  -0.3333333   0.1924501   0.0000000), wk =   0.0123457
        k(  110) = (  -0.3333333   0.5773503   0.0000000), wk =   0.0000000
        k(  111) = (   0.3888889  -0.2245251   0.0000000), wk =   0.0123457
        k(  112) = (   0.3888889   0.1603751   0.0000000), wk =   0.0000000
        k(  113) = (   0.0000000  -0.4490502   0.0000000), wk =   0.0061728
        k(  114) = (   0.0000000  -0.0641500   0.0000000), wk =   0.0000000
        k(  115) = (  -0.3888889   0.2245251   0.0000000), wk =   0.0123457
        k(  116) = (  -0.3888889   0.6094253   0.0000000), wk =   0.0000000
        k(  117) = (   0.4444444  -0.2566001   0.0000000), wk =   0.0123457
        k(  118) = (   0.4444444   0.1283001   0.0000000), wk =   0.0000000
        k(  119) = (   0.0000000  -0.5132002   0.0000000), wk =   0.0061728
        k(  120) = (   0.0000000  -0.1283001   0.0000000), wk =   0.0000000
        k(  121) = (  -0.4444444   0.2566001   0.0000000), wk =   0.0123457
        k(  122) = (  -0.4444444   0.6415003   0.0000000), wk =   0.0000000
        k(  123) = (  -0.5000000   0.2886751   0.0000000), wk =   0.0123457
        k(  124) = (  -0.5000000   0.6735753   0.0000000), wk =   0.0000000
        k(  125) = (   0.0555556  -0.0962250   0.0000000), wk =   0.0123457
        k(  126) = (   0.0555556   0.2886751   0.0000000), wk =   0.0000000
        k(  127) = (  -0.1111111   0.0000000   0.0000000), wk =   0.0123457
        k(  128) = (  -0.1111111   0.3849002   0.0000000), wk =   0.0000000
        k(  129) = (   0.1111111  -0.1283001   0.0000000), wk =   0.0123457
        k(  130) = (   0.1111111   0.2566001   0.0000000), wk =   0.0000000
        k(  131) = (  -0.1666667  -0.0320750   0.0000000), wk =   0.0123457
        k(  132) = (  -0.1666667   0.3528252   0.0000000), wk =   0.0000000
        k(  133) = (  -0.0555556  -0.1603751   0.0000000), wk =   0.0123457
        k(  134) = (  -0.0555556   0.2245251   0.0000000), wk =   0.0000000
        k(  135) = (  -0.1111111   0.1283001   0.0000000), wk =   0.0123457
        k(  136) = (  -0.1111111   0.5132002   0.0000000), wk =   0.0000000
        k(  137) = (   0.1666667   0.0320750   0.0000000), wk =   0.0123457
        k(  138) = (   0.1666667   0.4169752   0.0000000), wk =   0.0000000
        k(  139) = (   0.1666667  -0.1603751   0.0000000), wk =   0.0123457
        k(  140) = (   0.1666667   0.2245251   0.0000000), wk =   0.0000000
        k(  141) = (  -0.2222222  -0.0641500   0.0000000), wk =   0.0123457
        k(  142) = (  -0.2222222   0.3207501   0.0000000), wk =   0.0000000
        k(  143) = (  -0.0555556  -0.2245251   0.0000000), wk =   0.0123457
        k(  144) = (  -0.0555556   0.1603751   0.0000000), wk =   0.0000000
        k(  145) = (  -0.1666667   0.1603751   0.0000000), wk =   0.0123457
        k(  146) = (  -0.1666667   0.5452753   0.0000000), wk =   0.0000000
        k(  147) = (   0.2222222   0.0641500   0.0000000), wk =   0.0123457
        k(  148) = (   0.2222222   0.4490502   0.0000000), wk =   0.0000000
        k(  149) = (   0.2222222  -0.1924501   0.0000000), wk =   0.0123457
        k(  150) = (   0.2222222   0.1924501   0.0000000), wk =   0.0000000
        k(  151) = (  -0.2777778  -0.0962250   0.0000000), wk =   0.0123457
        k(  152) = (  -0.2777778   0.2886751   0.0000000), wk =   0.0000000
        k(  153) = (  -0.0555556  -0.2886751   0.0000000), wk =   0.0123457
        k(  154) = (  -0.0555556   0.0962250   0.0000000), wk =   0.0000000
        k(  155) = (  -0.2222222   0.1924501   0.0000000), wk =   0.0123457
        k(  156) = (  -0.2222222   0.5773503   0.0000000), wk =   0.0000000
        k(  157) = (   0.2777778   0.0962250   0.0000000), wk =   0.0123457
        k(  158) = (   0.2777778   0.4811252   0.0000000), wk =   0.0000000
        k(  159) = (   0.2777778  -0.2245251   0.0000000), wk =   0.0123457
        k(  160) = (   0.2777778   0.1603751   0.0000000), wk =   0.0000000
        k(  161) = (  -0.3333333  -0.1283001   0.0000000), wk =   0.0123457
        k(  162) = (  -0.3333333   0.2566001   0.0000000), wk =   0.0000000
        k(  163) = (  -0.0555556  -0.3528252   0.0000000), wk =   0.0123457
        k(  164) = (  -0.0555556   0.0320750   0.0000000), wk =   0.0000000
        k(  165) = (  -0.2777778   0.2245251   0.0000000), wk =   0.0123457
        k(  166) = (  -0.2777778   0.6094253   0.0000000), wk =   0.0000000
        k(  167) = (   0.3333333   0.1283001   0.0000000), wk =   0.0123457
        k(  168) = (   0.3333333   0.5132002   0.0000000), wk =   0.0000000
        k(  169) = (   0.3333333  -0.2566001   0.0000000), wk =   0.0123457
        k(  170) = (   0.3333333   0.1283001   0.0000000), wk =   0.0000000
        k(  171) = (  -0.3888889  -0.1603751   0.0000000), wk =   0.0123457
        k(  172) = (  -0.3888889   0.2245251   0.0000000), wk =   0.0000000
        k(  173) = (  -0.0555556  -0.4169752   0.0000000), wk =   0.0123457
        k(  174) = (  -0.0555556  -0.0320750   0.0000000), wk =   0.0000000
        k(  175) = (  -0.3333333   0.2566001   0.0000000), wk =   0.0123457
        k(  176) = (  -0.3333333   0.6415003   0.0000000), wk =   0.0000000
        k(  177) = (   0.3888889   0.1603751   0.0000000), wk =   0.0123457
        k(  178) = (   0.3888889   0.5452753   0.0000000), wk =   0.0000000
        k(  179) = (   0.3888889  -0.2886751   0.0000000), wk =   0.0123457
        k(  180) = (   0.3888889   0.0962250   0.0000000), wk =   0.0000000
        k(  181) = (  -0.4444444  -0.1924501   0.0000000), wk =   0.0123457
        k(  182) = (  -0.4444444   0.1924501   0.0000000), wk =   0.0000000
        k(  183) = (  -0.0555556  -0.4811252   0.0000000), wk =   0.0123457
        k(  184) = (  -0.0555556  -0.0962250   0.0000000), wk =   0.0000000
        k(  185) = (  -0.3888889   0.2886751   0.0000000), wk =   0.0123457
        k(  186) = (  -0.3888889   0.6735753   0.0000000), wk =   0.0000000
        k(  187) = (   0.4444444   0.1924501   0.0000000), wk =   0.0123457
        k(  188) = (   0.4444444   0.5773503   0.0000000), wk =   0.0000000
        k(  189) = (   0.4444444  -0.3207501   0.0000000), wk =   0.0123457
        k(  190) = (   0.4444444   0.0641500   0.0000000), wk =   0.0000000
        k(  191) = (  -0.5000000  -0.2245251   0.0000000), wk =   0.0123457
        k(  192) = (  -0.5000000   0.1603751   0.0000000), wk =   0.0000000
        k(  193) = (  -0.0555556  -0.5452753   0.0000000), wk =   0.0123457
        k(  194) = (  -0.0555556  -0.1603751   0.0000000), wk =   0.0000000
        k(  195) = (  -0.4444444   0.3207501   0.0000000), wk =   0.0123457
        k(  196) = (  -0.4444444   0.7056503   0.0000000), wk =   0.0000000
        k(  197) = (   0.5000000   0.2245251   0.0000000), wk =   0.0123457
        k(  198) = (   0.5000000   0.6094253   0.0000000), wk =   0.0000000
        k(  199) = (   0.1111111  -0.1924501   0.0000000), wk =   0.0123457
        k(  200) = (   0.1111111   0.1924501   0.0000000), wk =   0.0000000
        k(  201) = (  -0.2222222   0.0000000   0.0000000), wk =   0.0123457
        k(  202) = (  -0.2222222   0.3849002   0.0000000), wk =   0.0000000
        k(  203) = (   0.1666667  -0.2245251   0.0000000), wk =   0.0123457
        k(  204) = (   0.1666667   0.1603751   0.0000000), wk =   0.0000000
        k(  205) = (  -0.2777778  -0.0320750   0.0000000), wk =   0.0123457
        k(  206) = (  -0.2777778   0.3528252   0.0000000), wk =   0.0000000
        k(  207) = (  -0.1111111  -0.2566001   0.0000000), wk =   0.0123457
        k(  208) = (  -0.1111111   0.1283001   0.0000000), wk =   0.0000000
        k(  209) = (  -0.1666667   0.2245251   0.0000000), wk =   0.0123457
        k(  210) = (  -0.1666667   0.6094253   0.0000000), wk =   0.0000000
        k(  211) = (   0.2777778   0.0320750   0.0000000), wk =   0.0123457
        k(  212) = (   0.2777778   0.4169752   0.0000000), wk =   0.0000000
        k(  213) = (   0.2222222  -0.2566001   0.0000000), wk =   0.0123457
        k(  214) = (   0.2222222   0.1283001   0.0000000), wk =   0.0000000
        k(  215) = (  -0.3333333  -0.0641500   0.0000000), wk =   0.0123457
        k(  216) = (  -0.3333333   0.3207501   0.0000000), wk =   0.0000000
        k(  217) = (  -0.1111111  -0.3207501   0.0000000), wk =   0.0123457
        k(  218) = (  -0.1111111   0.0641500   0.0000000), wk =   0.0000000
        k(  219) = (  -0.2222222   0.2566001   0.0000000), wk =   0.0123457
        k(  220) = (  -0.2222222   0.6415003   0.0000000), wk =   0.0000000
        k(  221) = (   0.3333333   0.0641500   0.0000000), wk =   0.0123457
        k(  222) = (   0.3333333   0.4490502   0.0000000), wk =   0.0000000
        k(  223) = (   0.2777778  -0.2886751   0.0000000), wk =   0.0123457
        k(  224) = (   0.2777778   0.0962250   0.0000000), wk =   0.0000000
        k(  225) = (  -0.3888889  -0.0962250   0.0000000), wk =   0.0123457
        k(  226) = (  -0.3888889   0.2886751   0.0000000), wk =   0.0000000
        k(  227) = (  -0.1111111  -0.3849002   0.0000000), wk =   0.0123457
        k(  228) = (  -0.1111111  -0.0000000   0.0000000), wk =   0.0000000
        k(  229) = (  -0.2777778   0.2886751   0.0000000), wk =   0.0123457
        k(  230) = (  -0.2777778   0.6735753   0.0000000), wk =   0.0000000
        k(  231) = (   0.3888889   0.0962250   0.0000000), wk =   0.0123457
        k(  232) = (   0.3888889   0.4811252   0.0000000), wk =   0.0000000
        k(  233) = (   0.3333333  -0.3207501   0.0000000), wk =   0.0123457
        k(  234) = (   0.3333333   0.0641500   0.0000000), wk =   0.0000000
        k(  235) = (  -0.4444444  -0.1283001   0.0000000), wk =   0.0123457
        k(  236) = (  -0.4444444   0.2566001   0.0000000), wk =   0.0000000
        k(  237) = (  -0.1111111  -0.4490502   0.0000000), wk =   0.0123457
        k(  238) = (  -0.1111111  -0.0641500   0.0000000), wk =   0.0000000
        k(  239) = (  -0.3333333   0.3207501   0.0000000), wk =   0.0123457
        k(  240) = (  -0.3333333   0.7056503   0.0000000), wk =   0.0000000
        k(  241) = (   0.4444444   0.1283001   0.0000000), wk =   0.0123457
        k(  242) = (   0.4444444   0.5132002   0.0000000), wk =   0.0000000
        k(  243) = (   0.3888889  -0.3528252   0.0000000), wk =   0.0123457
        k(  244) = (   0.3888889   0.0320750   0.0000000), wk =   0.0000000
        k(  245) = (  -0.5000000  -0.1603751   0.0000000), wk =   0.0123457
        k(  246) = (  -0.5000000   0.2245251   0.0000000), wk =   0.0000000
        k(  247) = (  -0.1111111  -0.5132002   0.0000000), wk =   0.0123457
        k(  248) = (  -0.1111111  -0.1283001   0.0000000), wk =   0.0000000
        k(  249) = (  -0.3888889   0.3528252   0.0000000), wk =   0.0123457
        k(  250) = (  -0.3888889   0.7377253   0.0000000), wk =   0.0000000
        k(  251) = (   0.5000000   0.1603751   0.0000000), wk =   0.0123457
        k(  252) = (   0.5000000   0.5452753   0.0000000), wk =   0.0000000
        k(  253) = (   0.4444444  -0.3849002   0.0000000), wk =   0.0123457
        k(  254) = (   0.4444444  -0.0000000   0.0000000), wk =   0.0000000
        k(  255) = (  -0.5555556  -0.1924501   0.0000000), wk =   0.0123457
        k(  256) = (  -0.5555556   0.1924501   0.0000000), wk =   0.0000000
        k(  257) = (   0.1666667  -0.2886751   0.0000000), wk =   0.0123457
        k(  258) = (   0.1666667   0.0962250   0.0000000), wk =   0.0000000
        k(  259) = (  -0.3333333  -0.0000000   0.0000000), wk =   0.0123457
        k(  260) = (  -0.3333333   0.3849002   0.0000000), wk =   0.0000000
        k(  261) = (   0.2222222  -0.3207501   0.0000000), wk =   0.0123457
        k(  262) = (   0.2222222   0.0641500   0.0000000), wk =   0.0000000
        k(  263) = (  -0.3888889  -0.0320750   0.0000000), wk =   0.0123457
        k(  264) = (  -0.3888889   0.3528252   0.0000000), wk =   0.0000000
        k(  265) = (  -0.1666667  -0.3528252   0.0000000), wk =   0.0123457
        k(  266) = (  -0.1666667   0.0320750   0.0000000), wk =   0.0000000
        k(  267) = (  -0.2222222   0.3207501   0.0000000), wk =   0.0123457
        k(  268) = (  -0.2222222   0.7056503   0.0000000), wk =   0.0000000
        k(  269) = (   0.3888889   0.0320750   0.0000000), wk =   0.0123457
        k(  270) = (   0.3888889   0.4169752   0.0000000), wk =   0.0000000
        k(  271) = (   0.2777778  -0.3528252   0.0000000), wk =   0.0123457
        k(  272) = (   0.2777778   0.0320750   0.0000000), wk =   0.0000000
        k(  273) = (  -0.4444444  -0.0641500   0.0000000), wk =   0.0123457
        k(  274) = (  -0.4444444   0.3207501   0.0000000), wk =   0.0000000
        k(  275) = (  -0.1666667  -0.4169752   0.0000000), wk =   0.0123457
        k(  276) = (  -0.1666667  -0.0320750   0.0000000), wk =   0.0000000
        k(  277) = (  -0.2777778   0.3528252   0.0000000), wk =   0.0123457
        k(  278) = (  -0.2777778   0.7377253   0.0000000), wk =   0.0000000
        k(  279) = (   0.4444444   0.0641500   0.0000000), wk =   0.0123457
        k(  280) = (   0.4444444   0.4490502   0.0000000), wk =   0.0000000
        k(  281) = (   0.3333333  -0.3849002   0.0000000), wk =   0.0123457
        k(  282) = (   0.3333333  -0.0000000   0.0000000), wk =   0.0000000
        k(  283) = (  -0.5000000  -0.0962250   0.0000000), wk =   0.0123457
        k(  284) = (  -0.5000000   0.2886751   0.0000000), wk =   0.0000000
        k(  285) = (  -0.1666667  -0.4811252   0.0000000), wk =   0.0123457
        k(  286) = (  -0.1666667  -0.0962250   0.0000000), wk =   0.0000000
        k(  287) = (  -0.3333333   0.3849002   0.0000000), wk =   0.0123457
        k(  288) = (  -0.3333333   0.7698004   0.0000000), wk =   0.0000000
        k(  289) = (   0.5000000   0.0962250   0.0000000), wk =   0.0123457
        k(  290) = (   0.5000000   0.4811252   0.0000000), wk =   0.0000000
        k(  291) = (   0.3888889  -0.4169752   0.0000000), wk =   0.0123457
        k(  292) = (   0.3888889  -0.0320750   0.0000000), wk =   0.0000000
        k(  293) = (  -0.5555556  -0.1283001   0.0000000), wk =   0.0123457
        k(  294) = (  -0.5555556   0.2566001   0.0000000), wk =   0.0000000
        k(  295) = (  -0.1666667  -0.5452753   0.0000000), wk =   0.0123457
        k(  296) = (  -0.1666667  -0.1603751   0.0000000), wk =   0.0000000
        k(  297) = (  -0.3888889   0.4169752   0.0000000), wk =   0.0123457
        k(  298) = (  -0.3888889   0.8018754   0.0000000), wk =   0.0000000
        k(  299) = (   0.5555556   0.1283001   0.0000000), wk =   0.0123457
        k(  300) = (   0.5555556   0.5132002   0.0000000), wk =   0.0000000
        k(  301) = (   0.2222222  -0.3849002   0.0000000), wk =   0.0123457
        k(  302) = (   0.2222222   0.0000000   0.0000000), wk =   0.0000000
        k(  303) = (  -0.4444444   0.0000000   0.0000000), wk =   0.0123457
        k(  304) = (  -0.4444444   0.3849002   0.0000000), wk =   0.0000000
        k(  305) = (   0.2777778  -0.4169752   0.0000000), wk =   0.0123457
        k(  306) = (   0.2777778  -0.0320750   0.0000000), wk =   0.0000000
        k(  307) = (  -0.5000000  -0.0320750   0.0000000), wk =   0.0123457
        k(  308) = (  -0.5000000   0.3528252   0.0000000), wk =   0.0000000
        k(  309) = (  -0.2222222  -0.4490502   0.0000000), wk =   0.0123457
        k(  310) = (  -0.2222222  -0.0641500   0.0000000), wk =   0.0000000
        k(  311) = (  -0.2777778   0.4169752   0.0000000), wk =   0.0123457
        k(  312) = (  -0.2777778   0.8018754   0.0000000), wk =   0.0000000
        k(  313) = (   0.5000000   0.0320750   0.0000000), wk =   0.0123457
        k(  314) = (   0.5000000   0.4169752   0.0000000), wk =   0.0000000
        k(  315) = (   0.3333333  -0.4490502   0.0000000), wk =   0.0123457
        k(  316) = (   0.3333333  -0.0641500   0.0000000), wk =   0.0000000
        k(  317) = (  -0.5555556  -0.0641500   0.0000000), wk =   0.0123457
        k(  318) = (  -0.5555556   0.3207501   0.0000000), wk =   0.0000000
        k(  319) = (  -0.2222222  -0.5132002   0.0000000), wk =   0.0123457
        k(  320) = (  -0.2222222  -0.1283001   0.0000000), wk =   0.0000000
        k(  321) = (  -0.3333333   0.4490502   0.0000000), wk =   0.0123457
        k(  322) = (  -0.3333333   0.8339504   0.0000000), wk =   0.0000000
        k(  323) = (   0.5555556   0.0641500   0.0000000), wk =   0.0123457
        k(  324) = (   0.5555556   0.4490502   0.0000000), wk =   0.0000000
        k(  325) = (   0.3888889  -0.4811252   0.0000000), wk =   0.0123457
        k(  326) = (   0.3888889  -0.0962250   0.0000000), wk =   0.0000000
        k(  327) = (  -0.6111111  -0.0962250   0.0000000), wk =   0.0123457
        k(  328) = (  -0.6111111   0.2886751   0.0000000), wk =   0.0000000
        k(  329) = (   0.2777778  -0.4811252   0.0000000), wk =   0.0123457
        k(  330) = (   0.2777778  -0.0962250   0.0000000), wk =   0.0000000
        k(  331) = (  -0.5555556   0.0000000   0.0000000), wk =   0.0123457
        k(  332) = (  -0.5555556   0.3849002   0.0000000), wk =   0.0000000
        k(  333) = (   0.3333333  -0.5132002   0.0000000), wk =   0.0123457
        k(  334) = (   0.3333333  -0.1283001   0.0000000), wk =   0.0000000
        k(  335) = (  -0.6111111  -0.0320750   0.0000000), wk =   0.0123457
        k(  336) = (  -0.6111111   0.3528252   0.0000000), wk =   0.0000000
        k(  337) = (  -0.2777778  -0.5452753   0.0000000), wk =   0.0123457
        k(  338) = (  -0.2777778  -0.1603751   0.0000000), wk =   0.0000000
        k(  339) = (  -0.3333333   0.5132002   0.0000000), wk =   0.0123457
        k(  340) = (  -0.3333333   0.8981004   0.0000000), wk =   0.0000000
        k(  341) = (   0.6111111   0.0320750   0.0000000), wk =   0.0123457
        k(  342) = (   0.6111111   0.4169752   0.0000000), wk =   0.0000000

                       cryst. coord.
        k(    1) = (   0.0000000   0.0000000   0.0000000), wk =   0.0061728
        k(    2) = (   0.0000000   0.3333333   0.0000000), wk =   0.0000000
        k(    3) = (   0.0000000   0.0555556   0.0000000), wk =   0.0061728
        k(    4) = (   0.0000000   0.3888889   0.0000000), wk =   0.0000000
        k(    5) = (   0.0000000   0.1111111   0.0000000), wk =   0.0061728
        k(    6) = (   0.0000000   0.4444444   0.0000000), wk =   0.0000000
        k(    7) = (   0.0000000   0.1666667   0.0000000), wk =   0.0061728
        k(    8) = (   0.0000000   0.5000000   0.0000000), wk =   0.0000000
        k(    9) = (   0.0000000   0.2222222   0.0000000), wk =   0.0061728
        k(   10) = (   0.0000000   0.5555556   0.0000000), wk =   0.0000000
        k(   11) = (   0.0000000   0.2777778   0.0000000), wk =   0.0061728
        k(   12) = (   0.0000000   0.6111111   0.0000000), wk =   0.0000000
        k(   13) = (   0.0000000   0.3333333   0.0000000), wk =   0.0061728
        k(   14) = (   0.0000000   0.6666667   0.0000000), wk =   0.0000000
        k(   15) = (   0.0000000   0.3888889   0.0000000), wk =   0.0061728
        k(   16) = (   0.0000000   0.7222222   0.0000000), wk =   0.0000000
        k(   17) = (   0.0000000   0.4444444   0.0000000), wk =   0.0061728
        k(   18) = (   0.0000000   0.7777778   0.0000000), wk =   0.0000000
        k(   19) = (   0.0000000  -0.5000000   0.0000000), wk =   0.0061728
        k(   20) = (   0.0000000  -0.1666667   0.0000000), wk =   0.0000000
        k(   21) = (   0.0555556   0.0555556   0.0000000), wk =   0.0123457
        k(   22) = (   0.0555556   0.3888889   0.0000000), wk =   0.0000000
        k(   23) = (   0.0555556   0.1111111   0.0000000), wk =   0.0123457
        k(   24) = (   0.0555556   0.4444444   0.0000000), wk =   0.0000000
        k(   25) = (   0.0555556   0.1666667   0.0000000), wk =   0.0123457
        k(   26) = (   0.0555556   0.5000000   0.0000000), wk =   0.0000000
        k(   27) = (   0.0555556   0.2222222   0.0000000), wk =   0.0123457
        k(   28) = (   0.0555556   0.5555556   0.0000000), wk =   0.0000000
        k(   29) = (   0.0555556   0.2777778   0.0000000), wk =   0.0123457
        k(   30) = (   0.0555556   0.6111111   0.0000000), wk =   0.0000000
        k(   31) = (   0.0555556   0.3333333   0.0000000), wk =   0.0123457
        k(   32) = (   0.0555556   0.6666667   0.0000000), wk =   0.0000000
        k(   33) = (   0.0555556   0.3888889   0.0000000), wk =   0.0123457
        k(   34) = (   0.0555556   0.7222222   0.0000000), wk =   0.0000000
        k(   35) = (   0.0555556   0.4444444   0.0000000), wk =   0.0123457
        k(   36) = (   0.0555556   0.7777778   0.0000000), wk =   0.0000000
        k(   37) = (   0.1111111   0.1111111   0.0000000), wk =   0.0123457
        k(   38) = (   0.1111111   0.4444444   0.0000000), wk =   0.0000000
        k(   39) = (   0.1111111   0.1666667   0.0000000), wk =   0.0123457
        k(   40) = (   0.1111111   0.5000000   0.0000000), wk =   0.0000000
        k(   41) = (   0.1111111   0.2222222   0.0000000), wk =   0.0123457
        k(   42) = (   0.1111111   0.5555556   0.0000000), wk =   0.0000000
        k(   43) = (   0.1111111   0.2777778   0.0000000), wk =   0.0123457
        k(   44) = (   0.1111111   0.6111111   0.0000000), wk =   0.0000000
        k(   45) = (   0.1111111   0.3333333   0.0000000), wk =   0.0123457
        k(   46) = (   0.1111111   0.6666667   0.0000000), wk =   0.0000000
        k(   47) = (   0.1111111   0.3888889   0.0000000), wk =   0.0123457
        k(   48) = (   0.1111111   0.7222222   0.0000000), wk =   0.0000000
        k(   49) = (   0.1111111   0.4444444   0.0000000), wk =   0.0123457
        k(   50) = (   0.1111111   0.7777778   0.0000000), wk =   0.0000000
        k(   51) = (   0.1666667   0.1666667   0.0000000), wk =   0.0123457
        k(   52) = (   0.1666667   0.5000000   0.0000000), wk =   0.0000000
        k(   53) = (   0.1666667   0.2222222   0.0000000), wk =   0.0123457
        k(   54) = (   0.1666667   0.5555556   0.0000000), wk =   0.0000000
        k(   55) = (   0.1666667   0.2777778   0.0000000), wk =   0.0123457
        k(   56) = (   0.1666667   0.6111111   0.0000000), wk =   0.0000000
        k(   57) = (   0.1666667   0.3333333   0.0000000), wk =   0.0123457
        k(   58) = (   0.1666667   0.6666667   0.0000000), wk =   0.0000000
        k(   59) = (   0.1666667   0.3888889   0.0000000), wk =   0.0123457
        k(   60) = (   0.1666667   0.7222222   0.0000000), wk =   0.0000000
        k(   61) = (   0.2222222   0.2222222   0.0000000), wk =   0.0123457
        k(   62) = (   0.2222222   0.5555556   0.0000000), wk =   0.0000000
        k(   63) = (   0.2222222   0.2777778   0.0000000), wk =   0.0123457
        k(   64) = (   0.2222222   0.6111111   0.0000000), wk =   0.0000000
        k(   65) = (   0.2222222   0.3333333   0.0000000), wk =   0.0123457
        k(   66) = (   0.2222222   0.6666667   0.0000000), wk =   0.0000000
        k(   67) = (   0.2222222   0.3888889   0.0000000), wk =   0.0123457
        k(   68) = (   0.2222222   0.7222222   0.0000000), wk =   0.0000000
        k(   69) = (   0.2777778   0.2777778   0.0000000), wk =   0.0123457
        k(   70) = (   0.2777778   0.6111111   0.0000000), wk =   0.0000000
        k(   71) = (   0.2777778   0.3333333   0.0000000), wk =   0.0123457
        k(   72) = (   0.2777778   0.6666667   0.0000000), wk =   0.0000000
        k(   73) = (   0.3333333   0.3333333   0.0000000), wk =   0.0123457
        k(   74) = (   0.3333333   0.6666667   0.0000000), wk =   0.0000000
        k(   75) = (   0.0555556  -0.0555556   0.0000000), wk =   0.0123457
        k(   76) = (   0.0555556   0.2777778   0.0000000), wk =   0.0000000
        k(   77) = (   0.0000000  -0.0555556   0.0000000), wk =   0.0061728
        k(   78) = (   0.0000000   0.2777778   0.0000000), wk =   0.0000000
        k(   79) = (  -0.0555556   0.0555556   0.0000000), wk =   0.0123457
        k(   80) = (  -0.0555556   0.3888889   0.0000000), wk =   0.0000000
        k(   81) = (   0.1111111  -0.1111111   0.0000000), wk =   0.0123457
        k(   82) = (   0.1111111   0.2222222   0.0000000), wk =   0.0000000
        k(   83) = (   0.0000000  -0.1111111   0.0000000), wk =   0.0061728
        k(   84) = (   0.0000000   0.2222222   0.0000000), wk =   0.0000000
        k(   85) = (  -0.1111111   0.1111111   0.0000000), wk =   0.0123457
        k(   86) = (  -0.1111111   0.4444444   0.0000000), wk =   0.0000000
        k(   87) = (   0.1666667  -0.1666667   0.0000000), wk =   0.0123457
        k(   88) = (   0.1666667   0.1666667   0.0000000), wk =   0.0000000
        k(   89) = (   0.0000000  -0.1666667   0.0000000), wk =   0.0061728
        k(   90) = (   0.0000000   0.1666667   0.0000000), wk =   0.0000000
        k(   91) = (  -0.1666667   0.1666667   0.0000000), wk =   0.0123457
        k(   92) = (  -0.1666667   0.5000000   0.0000000), wk =   0.0000000
        k(   93) = (   0.2222222  -0.2222222   0.0000000), wk =   0.0123457
        k(   94) = (   0.2222222   0.1111111   0.0000000), wk =   0.0000000
        k(   95) = (   0.0000000  -0.2222222   0.0000000), wk =   0.0061728
        k(   96) = (   0.0000000   0.1111111   0.0000000), wk =   0.0000000
        k(   97) = (  -0.2222222   0.2222222   0.0000000), wk =   0.0123457
        k(   98) = (  -0.2222222   0.5555556   0.0000000), wk =   0.0000000
        k(   99) = (   0.2777778  -0.2777778   0.0000000), wk =   0.0123457
        k(  100) = (   0.2777778   0.0555556   0.0000000), wk =   0.0000000
        k(  101) = (   0.0000000  -0.2777778   0.0000000), wk =   0.0061728
        k(  102) = (   0.0000000   0.0555556   0.0000000), wk =   0.0000000
        k(  103) = (  -0.2777778   0.2777778   0.0000000), wk =   0.0123457
        k(  104) = (  -0.2777778   0.6111111   0.0000000), wk =   0.0000000
        k(  105) = (   0.3333333  -0.3333333   0.0000000), wk =   0.0123457
        k(  106) = (   0.3333333   0.0000000   0.0000000), wk =   0.0000000
        k(  107) = (   0.0000000  -0.3333333   0.0000000), wk =   0.0061728
        k(  108) = (   0.0000000   0.0000000   0.0000000), wk =   0.0000000
        k(  109) = (  -0.3333333   0.3333333   0.0000000), wk =   0.0123457
        k(  110) = (  -0.3333333   0.6666667   0.0000000), wk =   0.0000000
        k(  111) = (   0.3888889  -0.3888889   0.0000000), wk =   0.0123457
        k(  112) = (   0.3888889  -0.0555556   0.0000000), wk =   0.0000000
        k(  113) = (   0.0000000  -0.3888889   0.0000000), wk =   0.0061728
        k(  114) = (   0.0000000  -0.0555556   0.0000000), wk =   0.0000000
        k(  115) = (  -0.3888889   0.3888889   0.0000000), wk =   0.0123457
        k(  116) = (  -0.3888889   0.7222222   0.0000000), wk =   0.0000000
        k(  117) = (   0.4444444  -0.4444444   0.0000000), wk =   0.0123457
        k(  118) = (   0.4444444  -0.1111111   0.0000000), wk =   0.0000000
        k(  119) = (   0.0000000  -0.4444444   0.0000000), wk =   0.0061728
        k(  120) = (   0.0000000  -0.1111111   0.0000000), wk =   0.0000000
        k(  121) = (  -0.4444444   0.4444444   0.0000000), wk =   0.0123457
        k(  122) = (  -0.4444444   0.7777778   0.0000000), wk =   0.0000000
        k(  123) = (  -0.5000000   0.5000000   0.0000000), wk =   0.0123457
        k(  124) = (  -0.5000000   0.8333333   0.0000000), wk =   0.0000000
        k(  125) = (   0.0555556  -0.1111111   0.0000000), wk =   0.0123457
        k(  126) = (   0.0555556   0.2222222   0.0000000), wk =   0.0000000
        k(  127) = (  -0.1111111   0.0555556   0.0000000), wk =   0.0123457
        k(  128) = (  -0.1111111   0.3888889   0.0000000), wk =   0.0000000
        k(  129) = (   0.1111111  -0.1666667   0.0000000), wk =   0.0123457
        k(  130) = (   0.1111111   0.1666667   0.0000000), wk =   0.0000000
        k(  131) = (  -0.1666667   0.0555556   0.0000000), wk =   0.0123457
        k(  132) = (  -0.1666667   0.3888889   0.0000000), wk =   0.0000000
        k(  133) = (  -0.0555556  -0.1111111   0.0000000), wk =   0.0123457
        k(  134) = (  -0.0555556   0.2222222   0.0000000), wk =   0.0000000
        k(  135) = (  -0.1111111   0.1666667   0.0000000), wk =   0.0123457
        k(  136) = (  -0.1111111   0.5000000   0.0000000), wk =   0.0000000
        k(  137) = (   0.1666667  -0.0555556   0.0000000), wk =   0.0123457
        k(  138) = (   0.1666667   0.2777778   0.0000000), wk =   0.0000000
        k(  139) = (   0.1666667  -0.2222222   0.0000000), wk =   0.0123457
        k(  140) = (   0.1666667   0.1111111   0.0000000), wk =   0.0000000
        k(  141) = (  -0.2222222   0.0555556   0.0000000), wk =   0.0123457
        k(  142) = (  -0.2222222   0.3888889   0.0000000), wk =   0.0000000
        k(  143) = (  -0.0555556  -0.1666667   0.0000000), wk =   0.0123457
        k(  144) = (  -0.0555556   0.1666667   0.0000000), wk =   0.0000000
        k(  145) = (  -0.1666667   0.2222222   0.0000000), wk =   0.0123457
        k(  146) = (  -0.1666667   0.5555556   0.0000000), wk =   0.0000000
        k(  147) = (   0.2222222  -0.0555556   0.0000000), wk =   0.0123457
        k(  148) = (   0.2222222   0.2777778   0.0000000), wk =   0.0000000
        k(  149) = (   0.2222222  -0.2777778   0.0000000), wk =   0.0123457
        k(  150) = (   0.2222222   0.0555556   0.0000000), wk =   0.0000000
        k(  151) = (  -0.2777778   0.0555556   0.0000000), wk =   0.0123457
        k(  152) = (  -0.2777778   0.3888889   0.0000000), wk =   0.0000000
        k(  153) = (  -0.0555556  -0.2222222   0.0000000), wk =   0.0123457
        k(  154) = (  -0.0555556   0.1111111   0.0000000), wk =   0.0000000
        k(  155) = (  -0.2222222   0.2777778   0.0000000), wk =   0.0123457
        k(  156) = (  -0.2222222   0.6111111   0.0000000), wk =   0.0000000
        k(  157) = (   0.2777778  -0.0555556   0.0000000), wk =   0.0123457
        k(  158) = (   0.2777778   0.2777778   0.0000000), wk =   0.0000000
        k(  159) = (   0.2777778  -0.3333333   0.0000000), wk =   0.0123457
        k(  160) = (   0.2777778  -0.0000000   0.0000000), wk =   0.0000000
        k(  161) = (  -0.3333333   0.0555556   0.0000000), wk =   0.0123457
        k(  162) = (  -0.3333333   0.3888889   0.0000000), wk =   0.0000000
        k(  163) = (  -0.0555556  -0.2777778   0.0000000), wk =   0.0123457
        k(  164) = (  -0.0555556   0.0555556   0.0000000), wk =   0.0000000
        k(  165) = (  -0.2777778   0.3333333   0.0000000), wk =   0.0123457
        k(  166) = (  -0.2777778   0.6666667   0.0000000), wk =   0.0000000
        k(  167) = (   0.3333333  -0.0555556   0.0000000), wk =   0.0123457
        k(  168) = (   0.3333333   0.2777778   0.0000000), wk =   0.0000000
        k(  169) = (   0.3333333  -0.3888889   0.0000000), wk =   0.0123457
        k(  170) = (   0.3333333  -0.0555556   0.0000000), wk =   0.0000000
        k(  171) = (  -0.3888889   0.0555556   0.0000000), wk =   0.0123457
        k(  172) = (  -0.3888889   0.3888889   0.0000000), wk =   0.0000000
        k(  173) = (  -0.0555556  -0.3333333   0.0000000), wk =   0.0123457
        k(  174) = (  -0.0555556   0.0000000   0.0000000), wk =   0.0000000
        k(  175) = (  -0.3333333   0.3888889   0.0000000), wk =   0.0123457
        k(  176) = (  -0.3333333   0.7222222   0.0000000), wk =   0.0000000
        k(  177) = (   0.3888889  -0.0555556   0.0000000), wk =   0.0123457
        k(  178) = (   0.3888889   0.2777778   0.0000000), wk =   0.0000000
        k(  179) = (   0.3888889  -0.4444444   0.0000000), wk =   0.0123457
        k(  180) = (   0.3888889  -0.1111111   0.0000000), wk =   0.0000000
        k(  181) = (  -0.4444444   0.0555556   0.0000000), wk =   0.0123457
        k(  182) = (  -0.4444444   0.3888889   0.0000000), wk =   0.0000000
        k(  183) = (  -0.0555556  -0.3888889   0.0000000), wk =   0.0123457
        k(  184) = (  -0.0555556  -0.0555556   0.0000000), wk =   0.0000000
        k(  185) = (  -0.3888889   0.4444444   0.0000000), wk =   0.0123457
        k(  186) = (  -0.3888889   0.7777778   0.0000000), wk =   0.0000000
        k(  187) = (   0.4444444  -0.0555556   0.0000000), wk =   0.0123457
        k(  188) = (   0.4444444   0.2777778   0.0000000), wk =   0.0000000
        k(  189) = (   0.4444444  -0.5000000   0.0000000), wk =   0.0123457
        k(  190) = (   0.4444444  -0.1666667   0.0000000), wk =   0.0000000
        k(  191) = (  -0.5000000   0.0555556   0.0000000), wk =   0.0123457
        k(  192) = (  -0.5000000   0.3888889   0.0000000), wk =   0.0000000
        k(  193) = (  -0.0555556  -0.4444444   0.0000000), wk =   0.0123457
        k(  194) = (  -0.0555556  -0.1111111   0.0000000), wk =   0.0000000
        k(  195) = (  -0.4444444   0.5000000   0.0000000), wk =   0.0123457
        k(  196) = (  -0.4444444   0.8333333   0.0000000), wk =   0.0000000
        k(  197) = (   0.5000000  -0.0555556   0.0000000), wk =   0.0123457
        k(  198) = (   0.5000000   0.2777778   0.0000000), wk =   0.0000000
        k(  199) = (   0.1111111  -0.2222222   0.0000000), wk =   0.0123457
        k(  200) = (   0.1111111   0.1111111   0.0000000), wk =   0.0000000
        k(  201) = (  -0.2222222   0.1111111   0.0000000), wk =   0.0123457
        k(  202) = (  -0.2222222   0.4444444   0.0000000), wk =   0.0000000
        k(  203) = (   0.1666667  -0.2777778   0.0000000), wk =   0.0123457
        k(  204) = (   0.1666667   0.0555556   0.0000000), wk =   0.0000000
        k(  205) = (  -0.2777778   0.1111111   0.0000000), wk =   0.0123457
        k(  206) = (  -0.2777778   0.4444444   0.0000000), wk =   0.0000000
        k(  207) = (  -0.1111111  -0.1666667   0.0000000), wk =   0.0123457
        k(  208) = (  -0.1111111   0.1666667   0.0000000), wk =   0.0000000
        k(  209) = (  -0.1666667   0.2777778   0.0000000), wk =   0.0123457
        k(  210) = (  -0.1666667   0.6111111   0.0000000), wk =   0.0000000
        k(  211) = (   0.2777778  -0.1111111   0.0000000), wk =   0.0123457
        k(  212) = (   0.2777778   0.2222222   0.0000000), wk =   0.0000000
        k(  213) = (   0.2222222  -0.3333333   0.0000000), wk =   0.0123457
        k(  214) = (   0.2222222  -0.0000000   0.0000000), wk =   0.0000000
        k(  215) = (  -0.3333333   0.1111111   0.0000000), wk =   0.0123457
        k(  216) = (  -0.3333333   0.4444444   0.0000000), wk =   0.0000000
        k(  217) = (  -0.1111111  -0.2222222   0.0000000), wk =   0.0123457
        k(  218) = (  -0.1111111   0.1111111   0.0000000), wk =   0.0000000
        k(  219) = (  -0.2222222   0.3333333   0.0000000), wk =   0.0123457
        k(  220) = (  -0.2222222   0.6666667   0.0000000), wk =   0.0000000
        k(  221) = (   0.3333333  -0.1111111   0.0000000), wk =   0.0123457
        k(  222) = (   0.3333333   0.2222222   0.0000000), wk =   0.0000000
        k(  223) = (   0.2777778  -0.3888889   0.0000000), wk =   0.0123457
        k(  224) = (   0.2777778  -0.0555556   0.0000000), wk =   0.0000000
        k(  225) = (  -0.3888889   0.1111111   0.0000000), wk =   0.0123457
        k(  226) = (  -0.3888889   0.4444444   0.0000000), wk =   0.0000000
        k(  227) = (  -0.1111111  -0.2777778   0.0000000), wk =   0.0123457
        k(  228) = (  -0.1111111   0.0555556   0.0000000), wk =   0.0000000
        k(  229) = (  -0.2777778   0.3888889   0.0000000), wk =   0.0123457
        k(  230) = (  -0.2777778   0.7222222   0.0000000), wk =   0.0000000
        k(  231) = (   0.3888889  -0.1111111   0.0000000), wk =   0.0123457
        k(  232) = (   0.3888889   0.2222222   0.0000000), wk =   0.0000000
        k(  233) = (   0.3333333  -0.4444444   0.0000000), wk =   0.0123457
        k(  234) = (   0.3333333  -0.1111111   0.0000000), wk =   0.0000000
        k(  235) = (  -0.4444444   0.1111111   0.0000000), wk =   0.0123457
        k(  236) = (  -0.4444444   0.4444444   0.0000000), wk =   0.0000000
        k(  237) = (  -0.1111111  -0.3333333   0.0000000), wk =   0.0123457
        k(  238) = (  -0.1111111  -0.0000000   0.0000000), wk =   0.0000000
        k(  239) = (  -0.3333333   0.4444444   0.0000000), wk =   0.0123457
        k(  240) = (  -0.3333333   0.7777778   0.0000000), wk =   0.0000000
        k(  241) = (   0.4444444  -0.1111111   0.0000000), wk =   0.0123457
        k(  242) = (   0.4444444   0.2222222   0.0000000), wk =   0.0000000
        k(  243) = (   0.3888889  -0.5000000   0.0000000), wk =   0.0123457
        k(  244) = (   0.3888889  -0.1666667   0.0000000), wk =   0.0000000
        k(  245) = (  -0.5000000   0.1111111   0.0000000), wk =   0.0123457
        k(  246) = (  -0.5000000   0.4444444   0.0000000), wk =   0.0000000
        k(  247) = (  -0.1111111  -0.3888889   0.0000000), wk =   0.0123457
        k(  248) = (  -0.1111111  -0.0555556   0.0000000), wk =   0.0000000
        k(  249) = (  -0.3888889   0.5000000   0.0000000), wk =   0.0123457
        k(  250) = (  -0.3888889   0.8333333   0.0000000), wk =   0.0000000
        k(  251) = (   0.5000000  -0.1111111   0.0000000), wk =   0.0123457
        k(  252) = (   0.5000000   0.2222222   0.0000000), wk =   0.0000000
        k(  253) = (   0.4444444  -0.5555556   0.0000000), wk =   0.0123457
        k(  254) = (   0.4444444  -0.2222222   0.0000000), wk =   0.0000000
        k(  255) = (  -0.5555556   0.1111111   0.0000000), wk =   0.0123457
        k(  256) = (  -0.5555556   0.4444444   0.0000000), wk =   0.0000000
        k(  257) = (   0.1666667  -0.3333333   0.0000000), wk =   0.0123457
        k(  258) = (   0.1666667  -0.0000000   0.0000000), wk =   0.0000000
        k(  259) = (  -0.3333333   0.1666667   0.0000000), wk =   0.0123457
        k(  260) = (  -0.3333333   0.5000000   0.0000000), wk =   0.0000000
        k(  261) = (   0.2222222  -0.3888889   0.0000000), wk =   0.0123457
        k(  262) = (   0.2222222  -0.0555556   0.0000000), wk =   0.0000000
        k(  263) = (  -0.3888889   0.1666667   0.0000000), wk =   0.0123457
        k(  264) = (  -0.3888889   0.5000000   0.0000000), wk =   0.0000000
        k(  265) = (  -0.1666667  -0.2222222   0.0000000), wk =   0.0123457
        k(  266) = (  -0.1666667   0.1111111   0.0000000), wk =   0.0000000
        k(  267) = (  -0.2222222   0.3888889   0.0000000), wk =   0.0123457
        k(  268) = (  -0.2222222   0.7222222   0.0000000), wk =   0.0000000
        k(  269) = (   0.3888889  -0.1666667   0.0000000), wk =   0.0123457
        k(  270) = (   0.3888889   0.1666667   0.0000000), wk =   0.0000000
        k(  271) = (   0.2777778  -0.4444444   0.0000000), wk =   0.0123457
        k(  272) = (   0.2777778  -0.1111111   0.0000000), wk =   0.0000000
        k(  273) = (  -0.4444444   0.1666667   0.0000000), wk =   0.0123457
        k(  274) = (  -0.4444444   0.5000000   0.0000000), wk =   0.0000000
        k(  275) = (  -0.1666667  -0.2777778   0.0000000), wk =   0.0123457
        k(  276) = (  -0.1666667   0.0555556   0.0000000), wk =   0.0000000
        k(  277) = (  -0.2777778   0.4444444   0.0000000), wk =   0.0123457
        k(  278) = (  -0.2777778   0.7777778   0.0000000), wk =   0.0000000
        k(  279) = (   0.4444444  -0.1666667   0.0000000), wk =   0.0123457
        k(  280) = (   0.4444444   0.1666667   0.0000000), wk =   0.0000000
        k(  281) = (   0.3333333  -0.5000000   0.0000000), wk =   0.0123457
        k(  282) = (   0.3333333  -0.1666667   0.0000000), wk =   0.0000000
        k(  283) = (  -0.5000000   0.1666667   0.0000000), wk =   0.0123457
        k(  284) = (  -0.5000000   0.5000000   0.0000000), wk =   0.0000000
        k(  285) = (  -0.1666667  -0.3333333   0.0000000), wk =   0.0123457
        k(  286) = (  -0.1666667   0.0000000   0.0000000), wk =   0.0000000
        k(  287) = (  -0.3333333   0.5000000   0.0000000), wk =   0.0123457
        k(  288) = (  -0.3333333   0.8333333   0.0000000), wk =   0.0000000
        k(  289) = (   0.5000000  -0.1666667   0.0000000), wk =   0.0123457
        k(  290) = (   0.5000000   0.1666667   0.0000000), wk =   0.0000000
        k(  291) = (   0.3888889  -0.5555556   0.0000000), wk =   0.0123457
        k(  292) = (   0.3888889  -0.2222222   0.0000000), wk =   0.0000000
        k(  293) = (  -0.5555556   0.1666667   0.0000000), wk =   0.0123457
        k(  294) = (  -0.5555556   0.5000000   0.0000000), wk =   0.0000000
        k(  295) = (  -0.1666667  -0.3888889   0.0000000), wk =   0.0123457
        k(  296) = (  -0.1666667  -0.0555556   0.0000000), wk =   0.0000000
        k(  297) = (  -0.3888889   0.5555556   0.0000000), wk =   0.0123457
        k(  298) = (  -0.3888889   0.8888889   0.0000000), wk =   0.0000000
        k(  299) = (   0.5555556  -0.1666667   0.0000000), wk =   0.0123457
        k(  300) = (   0.5555556   0.1666667   0.0000000), wk =   0.0000000
        k(  301) = (   0.2222222  -0.4444444   0.0000000), wk =   0.0123457
        k(  302) = (   0.2222222  -0.1111111   0.0000000), wk =   0.0000000
        k(  303) = (  -0.4444444   0.2222222   0.0000000), wk =   0.0123457
        k(  304) = (  -0.4444444   0.5555556   0.0000000), wk =   0.0000000
        k(  305) = (   0.2777778  -0.5000000   0.0000000), wk =   0.0123457
        k(  306) = (   0.2777778  -0.1666667   0.0000000), wk =   0.0000000
        k(  307) = (  -0.5000000   0.2222222   0.0000000), wk =   0.0123457
        k(  308) = (  -0.5000000   0.5555556   0.0000000), wk =   0.0000000
        k(  309) = (  -0.2222222  -0.2777778   0.0000000), wk =   0.0123457
        k(  310) = (  -0.2222222   0.0555556   0.0000000), wk =   0.0000000
        k(  311) = (  -0.2777778   0.5000000   0.0000000), wk =   0.0123457
        k(  312) = (  -0.2777778   0.8333333   0.0000000), wk =   0.0000000
        k(  313) = (   0.5000000  -0.2222222   0.0000000), wk =   0.0123457
        k(  314) = (   0.5000000   0.1111111   0.0000000), wk =   0.0000000
        k(  315) = (   0.3333333  -0.5555556   0.0000000), wk =   0.0123457
        k(  316) = (   0.3333333  -0.2222222   0.0000000), wk =   0.0000000
        k(  317) = (  -0.5555556   0.2222222   0.0000000), wk =   0.0123457
        k(  318) = (  -0.5555556   0.5555556   0.0000000), wk =   0.0000000
        k(  319) = (  -0.2222222  -0.3333333   0.0000000), wk =   0.0123457
        k(  320) = (  -0.2222222  -0.0000000   0.0000000), wk =   0.0000000
        k(  321) = (  -0.3333333   0.5555556   0.0000000), wk =   0.0123457
        k(  322) = (  -0.3333333   0.8888889   0.0000000), wk =   0.0000000
        k(  323) = (   0.5555556  -0.2222222   0.0000000), wk =   0.0123457
        k(  324) = (   0.5555556   0.1111111   0.0000000), wk =   0.0000000
        k(  325) = (   0.3888889  -0.6111111   0.0000000), wk =   0.0123457
        k(  326) = (   0.3888889  -0.2777778   0.0000000), wk =   0.0000000
        k(  327) = (  -0.6111111   0.2222222   0.0000000), wk =   0.0123457
        k(  328) = (  -0.6111111   0.5555556   0.0000000), wk =   0.0000000
        k(  329) = (   0.2777778  -0.5555556   0.0000000), wk =   0.0123457
        k(  330) = (   0.2777778  -0.2222222   0.0000000), wk =   0.0000000
        k(  331) = (  -0.5555556   0.2777778   0.0000000), wk =   0.0123457
        k(  332) = (  -0.5555556   0.6111111   0.0000000), wk =   0.0000000
        k(  333) = (   0.3333333  -0.6111111   0.0000000), wk =   0.0123457
        k(  334) = (   0.3333333  -0.2777778   0.0000000), wk =   0.0000000
        k(  335) = (  -0.6111111   0.2777778   0.0000000), wk =   0.0123457
        k(  336) = (  -0.6111111   0.6111111   0.0000000), wk =   0.0000000
        k(  337) = (  -0.2777778  -0.3333333   0.0000000), wk =   0.0123457
        k(  338) = (  -0.2777778   0.0000000   0.0000000), wk =   0.0000000
        k(  339) = (  -0.3333333   0.6111111   0.0000000), wk =   0.0123457
        k(  340) = (  -0.3333333   0.9444444   0.0000000), wk =   0.0000000
        k(  341) = (   0.6111111  -0.2777778   0.0000000), wk =   0.0123457
        k(  342) = (   0.6111111   0.0555556   0.0000000), wk =   0.0000000

     PseudoPot. # 1 for Mo read from file:
     ../../pseudo/Mo.pbesol.dojo.upf
     MD5 check sum: c40353276b9086539cda6b9e5a66907b
     Pseudo is Norm-conserving + core correction, Zval = 14.0
     Generated using ONCVPSP code by D. R. Hamann
     Using radial grid of 1640 points,  6 beta functions with: 
                l(1) =   0
                l(2) =   0
                l(3) =   1
                l(4) =   1
                l(5) =   2
                l(6) =   2

     PseudoPot. # 2 for S  read from file:
     ../../pseudo/S.pbesol.dojo.upf
     MD5 check sum: 501737efeeef1fb1c631cda521d4e019
     Pseudo is Norm-conserving + core correction, Zval =  6.0
     Generated using ONCVPSP code by D. R. Hamann
     Using radial grid of 1146 points,  6 beta functions with: 
                l(1) =   0
                l(2) =   0
                l(3) =   1
                l(4) =   1
                l(5) =   2
                l(6) =   2

     point group C_2v (mm2) 
     there are  4 classes
     the character table:

       E     C2    s_v   s_v' 
A_1    1.00  1.00  1.00  1.00
A_2    1.00  1.00 -1.00 -1.00
B_1    1.00 -1.00  1.00 -1.00
B_2    1.00 -1.00 -1.00  1.00

     the symmetry operations in each class and the name of the first element:

     E        1
                                                                 
     C2       3
                                                                 
     s_v      2
                                                                 
     s_v'     4
                                                                 


     Atomic displacements:
     There are    9 irreducible representations

     Representation     1      1 modes -  Done
     Irreps are as follows:

                     mode #   1
                     (  -0.00000  -0.00000   ) 
                     (  -0.00000  -0.00000   ) 
                     (  -0.00000  -0.00000   ) 
                     (   0.00000  -0.00000   ) 
                     (  -0.50179   0.00000   ) 
                     (  -0.42209   0.26467   ) 
                     (  -0.00000   0.00000   ) 
                     (  -0.50179   0.00000   ) 
                     (   0.42209  -0.26467   ) 

     Representation     2      1 modes -  To be done
     Irreps are as follows:

                     mode #   2
                     (   0.00000  -0.00000   ) 
                     (   0.00000  -0.00000   ) 
                     (   0.00000  -0.00000   ) 
                     (   0.00000  -0.00000   ) 
                     (  -0.49820   0.00000   ) 
                     (   0.42513  -0.26657   ) 
                     (   0.00000  -0.00000   ) 
                     (  -0.49820  -0.00000   ) 
                     (  -0.42513   0.26657   ) 

     Representation     3      1 modes -  To be done
     Irreps are as follows:

                     mode #   3
                     (   0.00000  -0.00000   ) 
                     (  -1.00000  -0.00000   ) 
                     (   0.00000  -0.00000   ) 
                     (   0.00000  -0.00000   ) 
                     (   0.00000  -0.00000   ) 
                     (   0.00000  -0.00000   ) 
                     (   0.00000  -0.00000   ) 
                     (   0.00000  -0.00000   ) 
                     (   0.00000  -0.00000   ) 

     Representation     4      1 modes -  To be done
     Irreps are as follows:

                     mode #   4
                     (  -0.00000   0.00000   ) 
                     (  -0.00000   0.00000   ) 
                     (  -0.00000   0.00000   ) 
                     (  -0.70711  -0.00000   ) 
                     (  -0.00000   0.00000   ) 
                     (  -0.00000   0.00000   ) 
                     (   0.70711   0.00000   ) 
                     (  -0.00000  -0.00000   ) 
                     (   0.00000  -0.00000   ) 

     Representation     5      1 modes -  To be done
     Irreps are as follows:

                     mode #   5
                     (  -0.00000  -0.00000   ) 
                     (  -0.00000  -0.00000   ) 
                     (  -0.00000  -0.00000   ) 
                     (  -0.70711  -0.00000   ) 
                     (  -0.00000   0.00000   ) 
                     (   0.00000  -0.00000   ) 
                     (  -0.70711  -0.00000   ) 
                     (  -0.00000  -0.00000   ) 
                     (  -0.00000   0.00000   ) 

     Representation     6      1 modes -  To be done
     Irreps are as follows:

                     mode #   6
                     (  -1.00000  -0.00000   ) 
                     (  -0.00000  -0.00000   ) 
                     (  -0.00000  -0.00000   ) 
                     (  -0.00000  -0.00000   ) 
                     (  -0.00000  -0.00000   ) 
                     (  -0.00000  -0.00000   ) 
                     (  -0.00000  -0.00000   ) 
                     (  -0.00000  -0.00000   ) 
                     (  -0.00000  -0.00000   ) 

     Representation     7      1 modes -  To be done
     Irreps are as follows:

                     mode #   7
                     (  -0.00000   0.00000   ) 
                     (  -0.00000   0.00000   ) 
                     (  -0.00000   0.00000   ) 
                     (   0.00000   0.00000   ) 
                     (  -0.31120  -0.00000   ) 
                     (   0.31003   0.55411   ) 
                     (   0.00000   0.00000   ) 
                     (   0.31120  -0.00000   ) 
                     (   0.31003   0.55411   ) 

     Representation     8      1 modes -  To be done
     Irreps are as follows:

                     mode #   8
                     (  -0.00000  -0.00000   ) 
                     (  -0.00000  -0.00000   ) 
                     (  -1.00000  -0.00000   ) 
                     (  -0.00000  -0.00000   ) 
                     (  -0.00000  -0.00000   ) 
                     (  -0.00000  -0.00000   ) 
                     (  -0.00000  -0.00000   ) 
                     (  -0.00000  -0.00000   ) 
                     (  -0.00000  -0.00000   ) 

     Representation     9      1 modes -  To be done
     Irreps are as follows:

                     mode #   9
                     (  -0.00000   0.00000   ) 
                     (  -0.00000   0.00000   ) 
                     (  -0.00000   0.00000   ) 
                     (  -0.00000   0.00000   ) 
                     (  -0.63495  -0.00000   ) 
                     (  -0.15195  -0.27158   ) 
                     (  -0.00000   0.00000   ) 
                     (   0.63495   0.00000   ) 
                     (  -0.15195  -0.27158   ) 


     Message from routine init_vloc:
     Interpolation table for Vloc re-allocated
     PHONON       :      2.04s CPU     12.20s WALL



     Representation #   2 mode #   2

     Self-consistent Calculation

      iter #   8 total cpu time :    23.0 secs   av.it.:   3.2
      thresh= 3.624E-07 alpha_mix =  0.700 |ddv_scf|^2 =  5.719E-12

      iter #   9 total cpu time :    30.4 secs   av.it.:  15.7
      thresh= 2.391E-07 alpha_mix =  0.700 |ddv_scf|^2 =  2.532E-13

      iter #  10 total cpu time :    38.1 secs   av.it.:  16.9
      thresh= 5.032E-08 alpha_mix =  0.700 |ddv_scf|^2 =  6.076E-15

     End of self-consistent calculation

     Convergence has been achieved 


     Representation #   3 mode #   3

     Self-consistent Calculation

      iter #   1 total cpu time :    44.4 secs   av.it.:  12.1
      thresh= 1.000E-02 alpha_mix =  0.700 |ddv_scf|^2 =  6.107E-05

      iter #   2 total cpu time :    52.8 secs   av.it.:  17.4
      thresh= 7.815E-04 alpha_mix =  0.700 |ddv_scf|^2 =  1.469E-03

      iter #   3 total cpu time :    59.6 secs   av.it.:  14.8
      thresh= 3.832E-03 alpha_mix =  0.700 |ddv_scf|^2 =  1.892E-05

      iter #   4 total cpu time :    67.0 secs   av.it.:  15.9
      thresh= 4.350E-04 alpha_mix =  0.700 |ddv_scf|^2 =  8.904E-07

      iter #   5 total cpu time :    74.4 secs   av.it.:  16.5
      thresh= 9.436E-05 alpha_mix =  0.700 |ddv_scf|^2 =  8.212E-09

      iter #   6 total cpu time :    83.3 secs   av.it.:  17.6
      thresh= 9.062E-06 alpha_mix =  0.700 |ddv_scf|^2 =  3.771E-10

      iter #   7 total cpu time :    91.4 secs   av.it.:  17.6
      thresh= 1.942E-06 alpha_mix =  0.700 |ddv_scf|^2 =  8.147E-11

      iter #   8 total cpu time :    99.3 secs   av.it.:  17.0
      thresh= 9.026E-07 alpha_mix =  0.700 |ddv_scf|^2 =  1.703E-11

      iter #   9 total cpu time :   106.6 secs   av.it.:  16.2
      thresh= 4.126E-07 alpha_mix =  0.700 |ddv_scf|^2 =  1.379E-11

      iter #  10 total cpu time :   114.3 secs   av.it.:  15.8
      thresh= 3.713E-07 alpha_mix =  0.700 |ddv_scf|^2 =  2.911E-15

     End of self-consistent calculation

     Convergence has been achieved 


     Representation #   4 mode #   4

     Self-consistent Calculation

      iter #   1 total cpu time :   119.3 secs   av.it.:   8.8
      thresh= 1.000E-02 alpha_mix =  0.700 |ddv_scf|^2 =  4.024E-08

      iter #   2 total cpu time :   127.2 secs   av.it.:  17.5
      thresh= 2.006E-05 alpha_mix =  0.700 |ddv_scf|^2 =  3.604E-09

      iter #   3 total cpu time :   134.9 secs   av.it.:  17.3
      thresh= 6.003E-06 alpha_mix =  0.700 |ddv_scf|^2 =  8.222E-11

      iter #   4 total cpu time :   143.0 secs   av.it.:  17.0
      thresh= 9.067E-07 alpha_mix =  0.700 |ddv_scf|^2 =  1.765E-13

      iter #   5 total cpu time :   150.9 secs   av.it.:  17.7
      thresh= 4.201E-08 alpha_mix =  0.700 |ddv_scf|^2 =  3.945E-15

     End of self-consistent calculation

     Convergence has been achieved 


     Representation #   5 mode #   5

     Self-consistent Calculation

      iter #   1 total cpu time :   155.9 secs   av.it.:   8.8
      thresh= 1.000E-02 alpha_mix =  0.700 |ddv_scf|^2 =  5.653E-08

      iter #   2 total cpu time :   164.0 secs   av.it.:  17.6
      thresh= 2.378E-05 alpha_mix =  0.700 |ddv_scf|^2 =  9.187E-09

      iter #   3 total cpu time :   171.9 secs   av.it.:  17.6
      thresh= 9.585E-06 alpha_mix =  0.700 |ddv_scf|^2 =  1.447E-10

      iter #   4 total cpu time :   180.2 secs   av.it.:  17.5
      thresh= 1.203E-06 alpha_mix =  0.700 |ddv_scf|^2 =  3.447E-12

      iter #   5 total cpu time :   189.7 secs   av.it.:  18.1
      thresh= 1.857E-07 alpha_mix =  0.700 |ddv_scf|^2 =  5.115E-14

      iter #   6 total cpu time :   197.9 secs   av.it.:  18.4
      thresh= 2.262E-08 alpha_mix =  0.700 |ddv_scf|^2 =  8.259E-16

     End of self-consistent calculation

     Convergence has been achieved 


     Representation #   6 mode #   6

     Self-consistent Calculation

      iter #   1 total cpu time :   203.6 secs   av.it.:  10.7
      thresh= 1.000E-02 alpha_mix =  0.700 |ddv_scf|^2 =  9.058E-07

      iter #   2 total cpu time :   211.9 secs   av.it.:  17.6
      thresh= 9.517E-05 alpha_mix =  0.700 |ddv_scf|^2 =  1.588E-07

      iter #   3 total cpu time :   220.0 secs   av.it.:  17.5
      thresh= 3.985E-05 alpha_mix =  0.700 |ddv_scf|^2 =  6.569E-10

      iter #   4 total cpu time :   228.0 secs   av.it.:  18.1
      thresh= 2.563E-06 alpha_mix =  0.700 |ddv_scf|^2 =  3.687E-11

      iter #   5 total cpu time :   236.2 secs   av.it.:  17.7
      thresh= 6.072E-07 alpha_mix =  0.700 |ddv_scf|^2 =  4.261E-13

      iter #   6 total cpu time :   244.1 secs   av.it.:  18.0
      thresh= 6.528E-08 alpha_mix =  0.700 |ddv_scf|^2 =  2.421E-15

     End of self-consistent calculation

     Convergence has been achieved 


     Representation #   7 mode #   7

     Self-consistent Calculation

      iter #   1 total cpu time :   249.2 secs   av.it.:   9.4
      thresh= 1.000E-02 alpha_mix =  0.700 |ddv_scf|^2 =  7.831E-07

      iter #   2 total cpu time :   256.9 secs   av.it.:  16.8
      thresh= 8.849E-05 alpha_mix =  0.700 |ddv_scf|^2 =  1.777E-06

      iter #   3 total cpu time :   264.1 secs   av.it.:  15.8
      thresh= 1.333E-04 alpha_mix =  0.700 |ddv_scf|^2 =  2.594E-08

      iter #   4 total cpu time :   271.8 secs   av.it.:  16.7
      thresh= 1.611E-05 alpha_mix =  0.700 |ddv_scf|^2 =  2.302E-10

      iter #   5 total cpu time :   281.1 secs   av.it.:  17.6
      thresh= 1.517E-06 alpha_mix =  0.700 |ddv_scf|^2 =  1.546E-11

      iter #   6 total cpu time :   289.5 secs   av.it.:  17.8
      thresh= 3.931E-07 alpha_mix =  0.700 |ddv_scf|^2 =  1.202E-12

      iter #   7 total cpu time :   297.7 secs   av.it.:  17.0
      thresh= 1.096E-07 alpha_mix =  0.700 |ddv_scf|^2 =  1.132E-14

      iter #   8 total cpu time :   306.0 secs   av.it.:  18.3
      thresh= 1.064E-08 alpha_mix =  0.700 |ddv_scf|^2 =  2.802E-16

     End of self-consistent calculation

     Convergence has been achieved 


     Representation #   8 mode #   8

     Self-consistent Calculation

      iter #   1 total cpu time :   312.0 secs   av.it.:  11.1
      thresh= 1.000E-02 alpha_mix =  0.700 |ddv_scf|^2 =  7.833E-06

      iter #   2 total cpu time :   320.2 secs   av.it.:  17.4
      thresh= 2.799E-04 alpha_mix =  0.700 |ddv_scf|^2 =  2.355E-05

      iter #   3 total cpu time :   327.6 secs   av.it.:  15.8
      thresh= 4.852E-04 alpha_mix =  0.700 |ddv_scf|^2 =  8.405E-08

      iter #   4 total cpu time :   335.4 secs   av.it.:  17.4
      thresh= 2.899E-05 alpha_mix =  0.700 |ddv_scf|^2 =  1.626E-09

      iter #   5 total cpu time :   343.7 secs   av.it.:  17.8
      thresh= 4.032E-06 alpha_mix =  0.700 |ddv_scf|^2 =  1.179E-10

      iter #   6 total cpu time :   351.8 secs   av.it.:  18.0
      thresh= 1.086E-06 alpha_mix =  0.700 |ddv_scf|^2 =  6.484E-12

      iter #   7 total cpu time :   360.2 secs   av.it.:  17.7
      thresh= 2.546E-07 alpha_mix =  0.700 |ddv_scf|^2 =  4.652E-14

      iter #   8 total cpu time :   368.1 secs   av.it.:  18.4
      thresh= 2.157E-08 alpha_mix =  0.700 |ddv_scf|^2 =  2.135E-15

     End of self-consistent calculation

     Convergence has been achieved 


     Representation #   9 mode #   9

     Self-consistent Calculation

      iter #   1 total cpu time :   373.5 secs   av.it.:   9.7
      thresh= 1.000E-02 alpha_mix =  0.700 |ddv_scf|^2 =  9.254E-07

      iter #   2 total cpu time :   381.4 secs   av.it.:  17.3
      thresh= 9.620E-05 alpha_mix =  0.700 |ddv_scf|^2 =  2.437E-06

      iter #   3 total cpu time :   389.0 secs   av.it.:  15.8
      thresh= 1.561E-04 alpha_mix =  0.700 |ddv_scf|^2 =  1.920E-08

      iter #   4 total cpu time :   396.7 secs   av.it.:  16.8
      thresh= 1.386E-05 alpha_mix =  0.700 |ddv_scf|^2 =  1.614E-10

      iter #   5 total cpu time :   404.8 secs   av.it.:  17.7
      thresh= 1.271E-06 alpha_mix =  0.700 |ddv_scf|^2 =  7.754E-12

      iter #   6 total cpu time :   412.8 secs   av.it.:  17.9
      thresh= 2.785E-07 alpha_mix =  0.700 |ddv_scf|^2 =  5.827E-13

      iter #   7 total cpu time :   420.8 secs   av.it.:  17.5
      thresh= 7.634E-08 alpha_mix =  0.700 |ddv_scf|^2 =  1.278E-14

      iter #   8 total cpu time :   428.8 secs   av.it.:  18.0
      thresh= 1.130E-08 alpha_mix =  0.700 |ddv_scf|^2 =  5.579E-16

     End of self-consistent calculation

     Convergence has been achieved 

     Number of q in the star =    3
     List of q in the star:
          1   0.000000000   0.384900179   0.000000000
          2   0.333333333  -0.192450090   0.000000000
          3  -0.333333333  -0.192450090   0.000000000
     In addition there is the -q list: 
          1  -0.000000000  -0.384900179  -0.000000000
          2  -0.333333333   0.192450090  -0.000000000
          3   0.333333333   0.192450090  -0.000000000

     Diagonalizing the dynamical matrix

     q = (    0.000000000   0.384900179   0.000000000 ) 

 **************************************************************************
     freq (    1) =       3.849620 [THz] =     128.409514 [cm-1]
     freq (    2) =       4.116276 [THz] =     137.304199 [cm-1]
     freq (    3) =       6.392626 [THz] =     213.235047 [cm-1]
     freq (    4) =       9.054035 [THz] =     302.010093 [cm-1]
     freq (    5) =      10.008392 [THz] =     333.844033 [cm-1]
     freq (    6) =      10.575147 [THz] =     352.748933 [cm-1]
     freq (    7) =      11.168211 [THz] =     372.531426 [cm-1]
     freq (    8) =      12.122905 [THz] =     404.376586 [cm-1]
     freq (    9) =      12.319925 [THz] =     410.948474 [cm-1]
 **************************************************************************

     Mode symmetry, C_2v (mm2)  point group:

     freq (   1-   1) =        128.4  [cm-1]   --> B_2  D_4  S_4      
     freq (   2-   2) =        137.3  [cm-1]   --> B_1  D_3  S_3      
     freq (   3-   3) =        213.2  [cm-1]   --> A_1  D_1  S_1      
     freq (   4-   4) =        302.0  [cm-1]   --> A_2  D_2  S_2      
     freq (   5-   5) =        333.8  [cm-1]   --> B_2  D_4  S_4      
     freq (   6-   6) =        352.7  [cm-1]   --> A_1  D_1  S_1      
     freq (   7-   7) =        372.5  [cm-1]   --> B_1  D_3  S_3      
     freq (   8-   8) =        404.4  [cm-1]   --> B_2  D_4  S_4      
     freq (   9-   9) =        410.9  [cm-1]   --> A_1  D_1  S_1      

     Calculation of q =    0.0000000  -0.5773503   0.0000000

     Parallelization info
     --------------------
     sticks:   dense  smooth     PW     G-vecs:    dense   smooth      PW
     Min          48      48     15                 7382     7382    1349
     Max          49      49     16                 7411     7411    1378
     Sum         769     769    253               118307   118307   21861

     Using Slab Decomposition


     Title: 
     default                                                                    


     bravais-lattice index     =            4
     lattice parameter (alat)  =       5.9477  a.u.
     unit-cell volume          =    1225.4506 (a.u.)^3
     number of atoms/cell      =            3
     number of atomic types    =            2
     number of electrons       =        26.00
     number of Kohn-Sham states=           13
     kinetic-energy cutoff     =      80.0000  Ry
     charge density cutoff     =     320.0000  Ry
     Exchange-correlation= PBESOL
                           (   1   4  10   8   0   0   0)

     celldm(1)=   5.947749  celldm(2)=   0.000000  celldm(3)=   6.725234
     celldm(4)=   0.000000  celldm(5)=   0.000000  celldm(6)=   0.000000

     crystal axes: (cart. coord. in units of alat)
               a(1) = (   1.000000   0.000000   0.000000 )  
               a(2) = (  -0.500000   0.866025   0.000000 )  
               a(3) = (   0.000000   0.000000   6.725234 )  

     reciprocal axes: (cart. coord. in units 2 pi/alat)
               b(1) = (  1.000000  0.577350 -0.000000 )  
               b(2) = (  0.000000  1.154701  0.000000 )  
               b(3) = (  0.000000 -0.000000  0.148694 )  


     PseudoPot. # 1 for Mo read from file:
     ../../pseudo/Mo.pbesol.dojo.upf
     MD5 check sum: c40353276b9086539cda6b9e5a66907b
     Pseudo is Norm-conserving + core correction, Zval = 14.0
     Generated using ONCVPSP code by D. R. Hamann
     Using radial grid of 1640 points,  6 beta functions with: 
                l(1) =   0
                l(2) =   0
                l(3) =   1
                l(4) =   1
                l(5) =   2
                l(6) =   2

     PseudoPot. # 2 for S  read from file:
     ../../pseudo/S.pbesol.dojo.upf
     MD5 check sum: 501737efeeef1fb1c631cda521d4e019
     Pseudo is Norm-conserving + core correction, Zval =  6.0
     Generated using ONCVPSP code by D. R. Hamann
     Using radial grid of 1146 points,  6 beta functions with: 
                l(1) =   0
                l(2) =   0
                l(3) =   1
                l(4) =   1
                l(5) =   2
                l(6) =   2

     atomic species   valence    mass     pseudopotential
     Mo               14.00    95.95000     Mo( 1.00)
[...]
                     (  -0.00000   0.00000   ) 
                     (  -0.00000  -0.00000   ) 
                     (   0.70711   0.00000   ) 

     Representation     4      1 modes -  To be done
     Irreps are as follows:

                     mode #   4
                     (  -0.70711   0.00000   ) 
                     (   0.00000  -0.70711   ) 
                     (  -0.00000  -0.00000   ) 
                     (  -0.00000  -0.00000   ) 
                     (  -0.00000  -0.00000   ) 
                     (  -0.00000  -0.00000   ) 
                     (  -0.00000  -0.00000   ) 
                     (  -0.00000  -0.00000   ) 
                     (  -0.00000  -0.00000   ) 

     Representation     5      1 modes -  To be done
     Irreps are as follows:

                     mode #   5
                     (  -0.00000  -0.00000   ) 
                     (  -0.00000  -0.00000   ) 
                     (  -0.00000  -0.00000   ) 
                     (  -0.50000   0.00000   ) 
                     (  -0.00000   0.50000   ) 
                     (   0.00000   0.00000   ) 
                     (  -0.50000   0.00000   ) 
                     (   0.00000   0.50000   ) 
                     (   0.00000  -0.00000   ) 

     Representation     6      1 modes -  To be done
     Irreps are as follows:

                     mode #   6
                     (  -0.00000  -0.00000   ) 
                     (  -0.00000  -0.00000   ) 
                     (  -0.00000  -0.00000   ) 
                     (  -0.50000  -0.00000   ) 
                     (   0.00000  -0.50000   ) 
                     (  -0.00000  -0.00000   ) 
                     (   0.50000   0.00000   ) 
                     (  -0.00000   0.50000   ) 
                     (   0.00000   0.00000   ) 

     Representation     7      1 modes -  To be done
     Irreps are as follows:

                     mode #   7
                     (  -0.00000  -0.00000   ) 
                     (  -0.00000  -0.00000   ) 
                     (  -0.00000  -0.00000   ) 
                     (   0.00000  -0.00000   ) 
                     (   0.00000   0.00000   ) 
                     (  -0.70711  -0.00000   ) 
                     (  -0.00000   0.00000   ) 
                     (  -0.00000  -0.00000   ) 
                     (  -0.70711  -0.00000   ) 

     Representation     8      1 modes -  To be done
     Irreps are as follows:

                     mode #   8
                     (   0.00000  -0.00000   ) 
                     (   0.00000  -0.00000   ) 
                     (   0.00000  -0.00000   ) 
                     (  -0.50000  -0.00000   ) 
                     (   0.00000   0.50000   ) 
                     (   0.00000   0.00000   ) 
                     (   0.50000  -0.00000   ) 
                     (  -0.00000  -0.50000   ) 
                     (   0.00000  -0.00000   ) 

     Representation     9      1 modes -  To be done
     Irreps are as follows:

                     mode #   9
                     (  -0.00000  -0.00000   ) 
                     (  -0.00000  -0.00000   ) 
                     (  -1.00000  -0.00000   ) 
                     (  -0.00000  -0.00000   ) 
                     (  -0.00000  -0.00000   ) 
                     (  -0.00000  -0.00000   ) 
                     (  -0.00000  -0.00000   ) 
                     (  -0.00000  -0.00000   ) 
                     (  -0.00000  -0.00000   ) 



     Alpha used in Ewald sum =   2.8000
     PHONON       :  28m51.44s CPU  53m27.26s WALL



     Representation #   1 mode #   1

     Self-consistent Calculation

      iter #   1 total cpu time :  3210.6 secs   av.it.:   9.8
      thresh= 1.000E-02 alpha_mix =  0.700 |ddv_scf|^2 =  6.137E-07

      iter #   2 total cpu time :  3216.1 secs   av.it.:  17.7
      thresh= 7.834E-05 alpha_mix =  0.700 |ddv_scf|^2 =  5.899E-07

      iter #   3 total cpu time :  3221.2 secs   av.it.:  16.8
      thresh= 7.681E-05 alpha_mix =  0.700 |ddv_scf|^2 =  9.831E-10

      iter #   4 total cpu time :  3226.6 secs   av.it.:  17.4
      thresh= 3.135E-06 alpha_mix =  0.700 |ddv_scf|^2 =  6.031E-11

      iter #   5 total cpu time :  3231.9 secs   av.it.:  17.8
      thresh= 7.766E-07 alpha_mix =  0.700 |ddv_scf|^2 =  1.001E-12

      iter #   6 total cpu time :  3237.0 secs   av.it.:  17.7
      thresh= 1.000E-07 alpha_mix =  0.700 |ddv_scf|^2 =  5.534E-15

     End of self-consistent calculation

     Convergence has been achieved 


     Representation #   2 mode #   2

     Self-consistent Calculation

      iter #   1 total cpu time :  3241.4 secs   av.it.:  11.4
      thresh= 1.000E-02 alpha_mix =  0.700 |ddv_scf|^2 =  5.064E-06

      iter #   2 total cpu time :  3246.9 secs   av.it.:  17.8
      thresh= 2.250E-04 alpha_mix =  0.700 |ddv_scf|^2 =  5.261E-06

      iter #   3 total cpu time :  3252.2 secs   av.it.:  16.8
      thresh= 2.294E-04 alpha_mix =  0.700 |ddv_scf|^2 =  5.720E-09

      iter #   4 total cpu time :  3257.8 secs   av.it.:  18.0
      thresh= 7.563E-06 alpha_mix =  0.700 |ddv_scf|^2 =  3.396E-10

      iter #   5 total cpu time :  3263.3 secs   av.it.:  17.7
      thresh= 1.843E-06 alpha_mix =  0.700 |ddv_scf|^2 =  1.881E-12

      iter #   6 total cpu time :  3268.8 secs   av.it.:  18.0
      thresh= 1.372E-07 alpha_mix =  0.700 |ddv_scf|^2 =  2.902E-14

      iter #   7 total cpu time :  3274.2 secs   av.it.:  18.5
      thresh= 1.704E-08 alpha_mix =  0.700 |ddv_scf|^2 =  7.965E-16

     End of self-consistent calculation

     Convergence has been achieved 


     Representation #   3 mode #   3

     Self-consistent Calculation

      iter #   1 total cpu time :  3278.1 secs   av.it.:   9.4
      thresh= 1.000E-02 alpha_mix =  0.700 |ddv_scf|^2 =  2.639E-07

      iter #   2 total cpu time :  3283.4 secs   av.it.:  17.8
      thresh= 5.137E-05 alpha_mix =  0.700 |ddv_scf|^2 =  2.585E-07

      iter #   3 total cpu time :  3288.7 secs   av.it.:  16.9
      thresh= 5.085E-05 alpha_mix =  0.700 |ddv_scf|^2 =  1.446E-08

      iter #   4 total cpu time :  3293.9 secs   av.it.:  16.5
      thresh= 1.202E-05 alpha_mix =  0.700 |ddv_scf|^2 =  2.555E-10

      iter #   5 total cpu time :  3299.3 secs   av.it.:  17.7
      thresh= 1.598E-06 alpha_mix =  0.700 |ddv_scf|^2 =  2.036E-12

      iter #   6 total cpu time :  3304.7 secs   av.it.:  17.9
      thresh= 1.427E-07 alpha_mix =  0.700 |ddv_scf|^2 =  6.440E-14

      iter #   7 total cpu time :  3310.0 secs   av.it.:  17.9
      thresh= 2.538E-08 alpha_mix =  0.700 |ddv_scf|^2 =  1.551E-15

     End of self-consistent calculation

     Convergence has been achieved 


     Representation #   4 mode #   4

     Self-consistent Calculation

      iter #   1 total cpu time :  3314.0 secs   av.it.:  11.5
      thresh= 1.000E-02 alpha_mix =  0.700 |ddv_scf|^2 =  5.979E-06

      iter #   2 total cpu time :  3319.3 secs   av.it.:  17.8
      thresh= 2.445E-04 alpha_mix =  0.700 |ddv_scf|^2 =  1.080E-05

      iter #   3 total cpu time :  3324.5 secs   av.it.:  16.7
      thresh= 3.286E-04 alpha_mix =  0.700 |ddv_scf|^2 =  1.001E-07

      iter #   4 total cpu time :  3329.7 secs   av.it.:  17.3
      thresh= 3.164E-05 alpha_mix =  0.700 |ddv_scf|^2 =  7.881E-10

      iter #   5 total cpu time :  3335.1 secs   av.it.:  18.0
      thresh= 2.807E-06 alpha_mix =  0.700 |ddv_scf|^2 =  4.258E-11

      iter #   6 total cpu time :  3340.6 secs   av.it.:  17.8
      thresh= 6.525E-07 alpha_mix =  0.700 |ddv_scf|^2 =  7.401E-13

      iter #   7 total cpu time :  3345.9 secs   av.it.:  17.7
      thresh= 8.603E-08 alpha_mix =  0.700 |ddv_scf|^2 =  3.326E-15

     End of self-consistent calculation

     Convergence has been achieved 


     Representation #   5 mode #   5

     Self-consistent Calculation

      iter #   1 total cpu time :  3349.6 secs   av.it.:   9.7
      thresh= 1.000E-02 alpha_mix =  0.700 |ddv_scf|^2 =  2.486E-06

      iter #   2 total cpu time :  3355.0 secs   av.it.:  17.8
      thresh= 1.577E-04 alpha_mix =  0.700 |ddv_scf|^2 =  4.871E-05

      iter #   3 total cpu time :  3360.0 secs   av.it.:  15.6
      thresh= 6.979E-04 alpha_mix =  0.700 |ddv_scf|^2 =  3.312E-07

      iter #   4 total cpu time :  3365.2 secs   av.it.:  16.3
      thresh= 5.755E-05 alpha_mix =  0.700 |ddv_scf|^2 =  5.661E-10

      iter #   5 total cpu time :  3370.5 secs   av.it.:  17.4
      thresh= 2.379E-06 alpha_mix =  0.700 |ddv_scf|^2 =  5.134E-12

      iter #   6 total cpu time :  3375.7 secs   av.it.:  16.7
      thresh= 2.266E-07 alpha_mix =  0.700 |ddv_scf|^2 =  6.125E-14

      iter #   7 total cpu time :  3380.8 secs   av.it.:  17.6
      thresh= 2.475E-08 alpha_mix =  0.700 |ddv_scf|^2 =  1.096E-16

     End of self-consistent calculation

     Convergence has been achieved 


     Representation #   6 mode #   6

     Self-consistent Calculation

      iter #   1 total cpu time :  3384.3 secs   av.it.:   9.1
      thresh= 1.000E-02 alpha_mix =  0.700 |ddv_scf|^2 =  2.752E-07

      iter #   2 total cpu time :  3389.7 secs   av.it.:  17.6
      thresh= 5.246E-05 alpha_mix =  0.700 |ddv_scf|^2 =  1.036E-07

      iter #   3 total cpu time :  3395.0 secs   av.it.:  16.9
      thresh= 3.218E-05 alpha_mix =  0.700 |ddv_scf|^2 =  2.571E-10

      iter #   4 total cpu time :  3400.4 secs   av.it.:  16.9
      thresh= 1.604E-06 alpha_mix =  0.700 |ddv_scf|^2 =  1.702E-12

      iter #   5 total cpu time :  3405.5 secs   av.it.:  17.2
      thresh= 1.305E-07 alpha_mix =  0.700 |ddv_scf|^2 =  3.559E-14

      iter #   6 total cpu time :  3410.7 secs   av.it.:  17.5
      thresh= 1.887E-08 alpha_mix =  0.700 |ddv_scf|^2 =  8.396E-17

     End of self-consistent calculation

     Convergence has been achieved 


     Representation #   7 mode #   7

     Self-consistent Calculation

      iter #   1 total cpu time :  3414.2 secs   av.it.:   8.9
      thresh= 1.000E-02 alpha_mix =  0.700 |ddv_scf|^2 =  6.097E-08

      iter #   2 total cpu time :  3419.5 secs   av.it.:  17.5
      thresh= 2.469E-05 alpha_mix =  0.700 |ddv_scf|^2 =  1.741E-08

      iter #   3 total cpu time :  3424.6 secs   av.it.:  16.8
      thresh= 1.319E-05 alpha_mix =  0.700 |ddv_scf|^2 =  3.225E-09

      iter #   4 total cpu time :  3430.0 secs   av.it.:  16.7
      thresh= 5.679E-06 alpha_mix =  0.700 |ddv_scf|^2 =  3.208E-11

      iter #   5 total cpu time :  3435.7 secs   av.it.:  17.2
      thresh= 5.664E-07 alpha_mix =  0.700 |ddv_scf|^2 =  1.004E-13

      iter #   6 total cpu time :  3440.9 secs   av.it.:  17.4
      thresh= 3.168E-08 alpha_mix =  0.700 |ddv_scf|^2 =  5.906E-16

     End of self-consistent calculation

     Convergence has been achieved 


     Representation #   8 mode #   8

     Self-consistent Calculation

      iter #   1 total cpu time :  3444.5 secs   av.it.:   9.3
      thresh= 1.000E-02 alpha_mix =  0.700 |ddv_scf|^2 =  3.212E-07

      iter #   2 total cpu time :  3450.1 secs   av.it.:  17.6
      thresh= 5.667E-05 alpha_mix =  0.700 |ddv_scf|^2 =  1.669E-07

      iter #   3 total cpu time :  3455.1 secs   av.it.:  16.8
      thresh= 4.085E-05 alpha_mix =  0.700 |ddv_scf|^2 =  3.443E-10

      iter #   4 total cpu time :  3460.5 secs   av.it.:  17.1
      thresh= 1.855E-06 alpha_mix =  0.700 |ddv_scf|^2 =  6.388E-12

      iter #   5 total cpu time :  3466.3 secs   av.it.:  17.8
      thresh= 2.527E-07 alpha_mix =  0.700 |ddv_scf|^2 =  2.846E-13

      iter #   6 total cpu time :  3471.6 secs   av.it.:  17.6
      thresh= 5.335E-08 alpha_mix =  0.700 |ddv_scf|^2 =  1.159E-15

     End of self-consistent calculation

     Convergence has been achieved 


     Representation #   9 mode #   9

     Self-consistent Calculation

      iter #   1 total cpu time :  3475.7 secs   av.it.:  10.9
      thresh= 1.000E-02 alpha_mix =  0.700 |ddv_scf|^2 =  2.156E-06

      iter #   2 total cpu time :  3481.0 secs   av.it.:  17.8
      thresh= 1.468E-04 alpha_mix =  0.700 |ddv_scf|^2 =  1.195E-06

      iter #   3 total cpu time :  3486.5 secs   av.it.:  16.8
      thresh= 1.093E-04 alpha_mix =  0.700 |ddv_scf|^2 =  2.926E-09

      iter #   4 total cpu time :  3491.9 secs   av.it.:  17.8
      thresh= 5.409E-06 alpha_mix =  0.700 |ddv_scf|^2 =  1.929E-10

      iter #   5 total cpu time :  3497.3 secs   av.it.:  17.1
      thresh= 1.389E-06 alpha_mix =  0.700 |ddv_scf|^2 =  9.528E-13

      iter #   6 total cpu time :  3502.4 secs   av.it.:  17.6
      thresh= 9.761E-08 alpha_mix =  0.700 |ddv_scf|^2 =  5.431E-15

     End of self-consistent calculation

     Convergence has been achieved 

     Number of q in the star =    2
     List of q in the star:
          1   0.333333333   0.577350269   0.000000000
          2  -0.333333333   0.577350269   0.000000000

     Diagonalizing the dynamical matrix

     q = (    0.333333333   0.577350269   0.000000000 ) 

 **************************************************************************
     freq (    1) =       5.402888 [THz] =     180.220933 [cm-1]
     freq (    2) =       5.585676 [THz] =     186.318110 [cm-1]
     freq (    3) =       7.028610 [THz] =     234.449200 [cm-1]
     freq (    4) =       9.672684 [THz] =     322.646001 [cm-1]
     freq (    5) =      10.052971 [THz] =     335.331019 [cm-1]
     freq (    6) =      10.053371 [THz] =     335.344376 [cm-1]
     freq (    7) =      11.261324 [THz] =     375.637319 [cm-1]
     freq (    8) =      11.454260 [THz] =     382.072993 [cm-1]
     freq (    9) =      11.843574 [THz] =     395.059115 [cm-1]
 **************************************************************************

     Mode symmetry, C_3h (-6)   point group:

     freq (   1-   1) =        180.2  [cm-1]   --> E''*               
     freq (   2-   2) =        186.3  [cm-1]   --> E'                 
     freq (   3-   3) =        234.4  [cm-1]   --> A'                 
     freq (   4-   4) =        322.6  [cm-1]   --> E''                
     freq (   5-   5) =        335.3  [cm-1]   --> E'*                
     freq (   6-   6) =        335.3  [cm-1]   --> A''                
     freq (   7-   7) =        375.6  [cm-1]   --> E''*               
     freq (   8-   8) =        382.1  [cm-1]   --> A'                 
     freq (   9-   9) =        395.1  [cm-1]   --> E'                 

     init_run     :      0.38s CPU      0.81s WALL (       4 calls)
     electrons    :     39.59s CPU     73.86s WALL (       4 calls)

     Called by init_run:
     wfcinit      :      0.00s CPU      0.02s WALL (       4 calls)
     wfcinit:atom :      0.04s CPU      0.08s WALL (     216 calls)
     wfcinit:wfcr :      2.72s CPU      4.55s WALL (     216 calls)
     potinit      :      0.07s CPU      0.17s WALL (       4 calls)
     hinit0       :      0.05s CPU      0.14s WALL (       4 calls)

     Called by electrons:
     c_bands      :     39.53s CPU     72.68s WALL (       4 calls)
     v_of_rho     :      0.09s CPU      0.11s WALL (       6 calls)
     v_h          :      0.01s CPU      0.01s WALL (       6 calls)
     v_xc         :      0.13s CPU      0.16s WALL (      10 calls)

     Called by c_bands:
     init_us_2    :      6.01s CPU      9.00s WALL (   12430 calls)
     cegterg      :     35.69s CPU     57.64s WALL (     297 calls)

     Called by sum_band:

     Called by *egterg:
     cdiaghg      :      1.95s CPU      2.94s WALL (    4647 calls)
     cegterg:over :      3.31s CPU      5.49s WALL (    4431 calls)
     cegterg:upda :      1.36s CPU      1.88s WALL (    4431 calls)
     cegterg:last :      0.84s CPU      1.08s WALL (    1130 calls)
     h_psi        :   1344.05s CPU   2350.47s WALL (  242350 calls)
     g_psi        :      0.36s CPU      0.49s WALL (    4431 calls)

     Called by h_psi:
     h_psi:calbec :    114.13s CPU    199.07s WALL (  242350 calls)
     vloc_psi     :   1157.91s CPU   2039.31s WALL (  242350 calls)
     add_vuspsi   :     67.91s CPU    105.44s WALL (  242350 calls)

     General routines
     calbec       :    239.38s CPU    398.83s WALL (  485516 calls)
     fft          :      2.54s CPU      3.90s WALL (    5061 calls)
     ffts         :      0.93s CPU      1.39s WALL (    1544 calls)
     fftw         :   1195.58s CPU   2107.29s WALL ( 4803348 calls)
     davcio       :      3.22s CPU     26.82s WALL (   54435 calls)

     Parallel routines

     PHONON       :  31m34.05s CPU  58m23.10s WALL

     INITIALIZATION: 
     phq_setup    :      0.23s CPU      0.48s WALL (       5 calls)
     phq_init     :      1.33s CPU      3.27s WALL (       5 calls)

     phq_init     :      1.33s CPU      3.27s WALL (       5 calls)
     set_drhoc    :      0.01s CPU      0.01s WALL (      13 calls)
     init_vloc    :      0.01s CPU      0.10s WALL (       6 calls)
     init_us_1    :      0.00s CPU      0.00s WALL (       6 calls)
     init_us_2    :      6.01s CPU      9.00s WALL (   12430 calls)

     DYNAMICAL MATRIX:
     dynmat0      :      0.87s CPU      1.16s WALL (       4 calls)
     dynmat_us    :      0.78s CPU      1.04s WALL (       4 calls)
     d2ionq       :      0.03s CPU      0.03s WALL (       4 calls)
     dynmatcc     :      0.06s CPU      0.08s WALL (       4 calls)
     phqscf       :   1850.34s CPU   3409.00s WALL (       5 calls)
     dynmatrix    :      0.05s CPU      0.56s WALL (       5 calls)

     phqscf       :   1850.34s CPU   3409.00s WALL (       5 calls)
     solve_linter :   1846.04s CPU   3399.57s WALL (      44 calls)
     sth_kernel   :   1807.77s CPU   3180.76s WALL (     346 calls)
     h_prec       :      2.75s CPU      4.44s WALL (    9680 calls)
     apply_dpot_b :     62.91s CPU    106.52s WALL (    8554 calls)
     ortho        :      3.68s CPU      6.19s WALL (    9680 calls)
     cgsolve      :   1660.67s CPU   2876.82s WALL (    9680 calls)
     incdrhoscf   :     66.81s CPU    120.64s WALL (    9680 calls)
                                        0.00s GPU  (    9680 calls)
     dv_of_drho   :      2.45s CPU      3.65s WALL (     346 calls)
     mix_pot      :      0.97s CPU     66.60s WALL (     346 calls)
     drhodv       :      4.22s CPU      6.77s WALL (      44 calls)
     psymdvscf    :     18.26s CPU     40.79s WALL (     346 calls)

     dvqpsi_us    :     11.64s CPU     18.02s WALL (    1148 calls)
                                        0.00s GPU  (    1148 calls)
     dvqpsi_us_on :      2.16s CPU      2.65s WALL (    1148 calls)

     add_vuspsi   :     67.91s CPU    105.44s WALL (  242350 calls)


      General routines
     calbec       :    239.38s CPU    398.83s WALL (  485516 calls)
     fft          :      2.54s CPU      3.90s WALL (    5061 calls)
     ffts         :      0.93s CPU      1.39s WALL (    1544 calls)
     fftw         :   1195.58s CPU   2107.29s WALL ( 4803348 calls)
     davcio       :      3.22s CPU     26.82s WALL (   54435 calls)
     write_rec    :      0.30s CPU     21.65s WALL (     390 calls)

      Additional routines
     ch_psi       :   1543.45s CPU   2665.22s WALL (  237406 calls)
     last         :    217.79s CPU    345.89s WALL (  237406 calls)
     Hesh         :      4.36s CPU      6.71s WALL (  237406 calls)
     ch_psi_all_k :    212.87s CPU    338.40s WALL (  237406 calls)
                                        0.00s GPU  (  237406 calls)
     ch_psi_calbe :    122.34s CPU    194.18s WALL (  237406 calls)
                                        0.00s GPU  (  237406 calls)
     h_psi_bgrp   :   1344.34s CPU   2350.87s WALL (  242350 calls)
     h_psi        :   1344.05s CPU   2350.47s WALL (  242350 calls)
     h_psi:pot    :   1340.65s CPU   2344.79s WALL (  242350 calls)
     h_psi:calbec :    114.13s CPU    199.07s WALL (  242350 calls)
     s_psi_bgrp   :      8.22s CPU     12.66s WALL (  484492 calls)


     PHONON       :  31m34.05s CPU  58m23.11s WALL


   This run was terminated on:  12:31:57   9Mar2026            

=------------------------------------------------------------------------------=
   JOB DONE.
=------------------------------------------------------------------------------=
