
     Program PWSCF v.7.5 starts on  9Mar2026 at 11:20:14 
        Git branch: HEAD
        Last git commit: 770a0b2d12928a67048e2f3da8d10d057e52179e
        Last git commit date: Tue Aug 19 09:57:12 2025 +0000
        Last git commit subject: Merge branch 'QE-7.5-RC' into 'master'

     This program is part of the open-source Quantum ESPRESSO suite
     for quantum simulation of materials; please cite
         "P. Giannozzi et al., J. Phys.:Condens. Matter 21 395502 (2009);
         "P. Giannozzi et al., J. Phys.:Condens. Matter 29 465901 (2017);
         "P. Giannozzi et al., J. Chem. Phys. 152 154105 (2020);
          URL http://www.quantum-espresso.org", 
     in publications or presentations arising from this work. More details at
     http://www.quantum-espresso.org/quote

     Parallel version (MPI), running on   256 processors

     MPI processes distributed on     8 nodes
     239632 MiB available memory on the printing compute node when the environment starts

     Waiting for input...
     Reading input from standard input

     Current dimensions of program PWSCF are:
     Max number of different atomic species (ntypx) = 10
     Max number of k-points (npk) =  40000
     Max angular momentum in pseudopotentials (lmaxx) =  4

     Atomic positions and unit cell read from directory:
     ./tmp/NiI2.save/


     K-points division:     npool     =       8
     R & G space division:  proc/nbgrp/npool/nimage =      32
     Subspace diagonalization in iterative solution of the eigenvalue problem:
     one sub-group per band group will be used
     custom distributed-memory algorithm (size of sub-group:  2*  2 procs)


     Parallelization info
     --------------------
     sticks:   dense  smooth     PW     G-vecs:    dense   smooth      PW
     Min          96      96     27                 1853     1853     290
     Max          97      97     28                 1855     1855     292
     Sum        3099    3099    893                59333    59333    9327

     Using Slab Decomposition



     bravais-lattice index     =            5
     lattice parameter (alat)  =      26.8360  a.u.
     unit-cell volume          =    1281.9023 (a.u.)^3
     number of atoms/cell      =            6
     number of atomic types    =            3
     number of electrons       =        64.00
     number of Kohn-Sham states=          200
     kinetic-energy cutoff     =      49.0000  Ry
     charge density cutoff     =     196.0000  Ry
     Exchange-correlation= PBESOL
                           (   1   4  10   8   0   0   0)

     celldm(1)=  26.836001  celldm(2)=   0.000000  celldm(3)=   0.000000
     celldm(4)=   0.961200  celldm(5)=   0.000000  celldm(6)=   0.000000

     crystal axes: (cart. coord. in units of alat)
               a(1) = (   0.139284  -0.080416   0.986982 )  
               a(2) = (   0.000000   0.160831   0.986982 )  
               a(3) = (  -0.139284  -0.080416   0.986982 )  

     reciprocal axes: (cart. coord. in units 2 pi/alat)
               b(1) = (  3.589791 -2.072567  0.337730 )  
               b(2) = (  0.000000  4.145133  0.337730 )  
               b(3) = ( -3.589791 -2.072567  0.337730 )  


     PseudoPot. # 1 for Ni read from file:
     ./Pseudos/Ni_pbesol.upf
     MD5 check sum: 3ec56ad6bf78c9cc1bbec815420e1c7d
     Pseudo is Norm-conserving + core correction, Zval = 18.0
     Generated using ONCVPSP code by D. R. Hamann
     Using radial grid of 1356 points,  6 beta functions with: 
                l(1) =   0
                l(2) =   0
                l(3) =   1
                l(4) =   1
                l(5) =   2
                l(6) =   2

     PseudoPot. # 2 for Ni read from file:
     ./Pseudos/Ni_pbesol.upf
     MD5 check sum: 3ec56ad6bf78c9cc1bbec815420e1c7d
     Pseudo is Norm-conserving + core correction, Zval = 18.0
     Generated using ONCVPSP code by D. R. Hamann
     Using radial grid of 1356 points,  6 beta functions with: 
                l(1) =   0
                l(2) =   0
                l(3) =   1
                l(4) =   1
                l(5) =   2
                l(6) =   2

     PseudoPot. # 3 for I  read from file:
     ./Pseudos/I_pbesol.upf
     MD5 check sum: 80ed5ceb2eb9c553cfb6760a299d9c5b
     Pseudo is Norm-conserving + core correction, Zval =  7.0
     Generated using ONCVPSP code by D. R. Hamann
     Using radial grid of 1182 points,  6 beta functions with: 
                l(1) =   0
                l(2) =   0
                l(3) =   1
                l(4) =   1
                l(5) =   2
                l(6) =   2

     atomic species   valence    mass     pseudopotential
     Ni1              18.00    58.69340     Ni( 1.00)
     Ni2              18.00    58.69340     Ni( 1.00)
     I                 7.00   126.90447     I ( 1.00)

     Starting magnetic structure 
     atomic species   magnetization
     Ni1             0.000
     Ni2             0.000
     I               0.000

     12 Sym. Ops., with inversion, found


                                    s                        frac. trans.

      isym =  1     identity                                     

 cryst.   s( 1) = (     1          0          0      )
                  (     0          1          0      )
                  (     0          0          1      )

 cart.    s( 1) = (  1.0000000  0.0000000  0.0000000 )
                  (  0.0000000  1.0000000  0.0000000 )
                  ( -0.0000000 -0.0000000  1.0000000 )


      isym =  2     180 deg rotation - cart. axis [1,0,0]        

 cryst.   s( 2) = (     0          0         -1      )
                  (     0         -1          0      )
                  (    -1          0          0      )

 cart.    s( 2) = (  1.0000000 -0.0000000 -0.0000000 )
                  (  0.0000000 -1.0000000 -0.0000000 )
                  ( -0.0000000  0.0000000 -1.0000000 )


      isym =  3     120 deg rotation - cryst. axis [0,0,1]       

 cryst.   s( 3) = (     0          1          0      )
                  (     0          0          1      )
                  (     1          0          0      )

 cart.    s( 3) = ( -0.5000000 -0.8660254 -0.0000000 )
                  (  0.8660254 -0.5000000 -0.0000000 )
                  (  0.0000000  0.0000000  1.0000000 )


      isym =  4     120 deg rotation - cryst. axis [0,0,-1]      

 cryst.   s( 4) = (     0          0          1      )
                  (     1          0          0      )
                  (     0          1          0      )

 cart.    s( 4) = ( -0.5000000  0.8660254  0.0000000 )
                  ( -0.8660254 -0.5000000 -0.0000000 )
                  (  0.0000000 -0.0000000  1.0000000 )


      isym =  5     180 deg rotation - cryst. axis [0,1,0]       

 cryst.   s( 5) = (     0         -1          0      )
                  (    -1          0          0      )
                  (     0          0         -1      )

 cart.    s( 5) = ( -0.5000000 -0.8660254 -0.0000000 )
                  ( -0.8660254  0.5000000  0.0000000 )
                  (  0.0000000  0.0000000 -1.0000000 )


      isym =  6     180 deg rotation - cryst. axis [1,1,0]       

 cryst.   s( 6) = (    -1          0          0      )
                  (     0          0         -1      )
                  (     0         -1          0      )

 cart.    s( 6) = ( -0.5000000  0.8660254  0.0000000 )
                  (  0.8660254  0.5000000  0.0000000 )
                  ( -0.0000000 -0.0000000 -1.0000000 )


      isym =  7     inversion                                    

 cryst.   s( 7) = (    -1          0          0      )
                  (     0         -1          0      )
                  (     0          0         -1      )

 cart.    s( 7) = ( -1.0000000 -0.0000000 -0.0000000 )
                  ( -0.0000000 -1.0000000 -0.0000000 )
                  (  0.0000000  0.0000000 -1.0000000 )


      isym =  8     inv. 180 deg rotation - cart. axis [1,0,0]   

 cryst.   s( 8) = (     0          0          1      )
                  (     0          1          0      )
                  (     1          0          0      )

 cart.    s( 8) = ( -1.0000000  0.0000000  0.0000000 )
                  ( -0.0000000  1.0000000  0.0000000 )
                  (  0.0000000 -0.0000000  1.0000000 )


      isym =  9     inv. 120 deg rotation - cryst. axis [0,0,1]  

 cryst.   s( 9) = (     0         -1          0      )
                  (     0          0         -1      )
                  (    -1          0          0      )

 cart.    s( 9) = (  0.5000000  0.8660254  0.0000000 )
                  ( -0.8660254  0.5000000  0.0000000 )
                  ( -0.0000000 -0.0000000 -1.0000000 )


      isym = 10     inv. 120 deg rotation - cryst. axis [0,0,-1] 

 cryst.   s(10) = (     0          0         -1      )
                  (    -1          0          0      )
                  (     0         -1          0      )

 cart.    s(10) = (  0.5000000 -0.8660254 -0.0000000 )
                  (  0.8660254  0.5000000  0.0000000 )
                  ( -0.0000000  0.0000000 -1.0000000 )


      isym = 11     inv. 180 deg rotation - cryst. axis [0,1,0]  

 cryst.   s(11) = (     0          1          0      )
                  (     1          0          0      )
                  (     0          0          1      )

 cart.    s(11) = (  0.5000000  0.8660254  0.0000000 )
                  (  0.8660254 -0.5000000 -0.0000000 )
                  ( -0.0000000 -0.0000000  1.0000000 )


      isym = 12     inv. 180 deg rotation - cryst. axis [1,1,0]  

 cryst.   s(12) = (     1          0          0      )
                  (     0          0          1      )
                  (     0          1          0      )

 cart.    s(12) = (  0.5000000 -0.8660254 -0.0000000 )
                  ( -0.8660254 -0.5000000 -0.0000000 )
                  (  0.0000000  0.0000000  1.0000000 )


     point group D_3d (-3m) 
     there are  6 classes
     the character table:

       E     2C3   3C2'  i     2S6   3s_d 
A_1g   1.00  1.00  1.00  1.00  1.00  1.00
A_2g   1.00  1.00 -1.00  1.00  1.00 -1.00
E_g    2.00 -1.00  0.00  2.00 -1.00  0.00
A_1u   1.00  1.00  1.00 -1.00 -1.00 -1.00
A_2u   1.00  1.00 -1.00 -1.00 -1.00  1.00
E_u    2.00 -1.00  0.00 -2.00  1.00  0.00

     the symmetry operations in each class and the name of the first element:

     E        1
          identity                                               
     2C3      3    4
          120 deg rotation - cryst. axis [0,0,1]                 
     3C2'     2    5    6
          180 deg rotation - cart. axis [1,0,0]                  
     i        7
          inversion                                              
     2S6      9   10
          inv. 120 deg rotation - cryst. axis [0,0,1]            
     3s_d     8   11   12
          inv. 180 deg rotation - cart. axis [1,0,0]             

   Cartesian axes

     site n.     atom                  positions (alat units)
         1        Ni1    tau(   1) = (   0.0000000   0.0000000   0.0000000  )
         2        Ni2    tau(   2) = (   0.1392839   0.0804156   0.4934910  )
         3        I      tau(   3) = (  -0.0000000  -0.0000000   0.3856062  )
         4        I      tau(   4) = (   0.1392839   0.0804156   0.8790972  )
         5        I      tau(   5) = (   0.1392839   0.0804156   0.1078847  )
         6        I      tau(   6) = (   0.1392839  -0.0804156   0.6013757  )

   Crystallographic axes

     site n.     atom                  positions (cryst. coord.)
         1        Ni1    tau(   1) = (  0.0000000  0.0000000  0.0000000  )
         2        Ni2    tau(   2) = (  0.5000000  0.5000000 -0.5000000  )
         3        I      tau(   3) = (  0.1302308  0.1302308  0.1302308  )
         4        I      tau(   4) = (  0.6302308  0.6302308 -0.3697692  )
         5        I      tau(   5) = (  0.3697692  0.3697692 -0.6302308  )
         6        I      tau(   6) = (  0.8697692 -0.1302308 -0.1302308  )

     number of k points=   193  Gaussian smearing, width (Ry)=  0.0100
                       cart. coord. in units 2pi/alat
        k(    1) = (   0.0000000   0.0000000   0.0000000), wk =   0.0051813
        k(    2) = (   0.0598298  -0.0345428   0.0056288), wk =   0.0051813
        k(    3) = (   0.1196597  -0.0690856   0.0112577), wk =   0.0051813
        k(    4) = (   0.1794895  -0.1036283   0.0168865), wk =   0.0051813
        k(    5) = (   0.2393194  -0.1381711   0.0225153), wk =   0.0051813
        k(    6) = (   0.2991492  -0.1727139   0.0281442), wk =   0.0051813
        k(    7) = (   0.3589791  -0.2072567   0.0337730), wk =   0.0051813
        k(    8) = (   0.4188089  -0.2417994   0.0394018), wk =   0.0051813
        k(    9) = (   0.4786388  -0.2763422   0.0450307), wk =   0.0051813
        k(   10) = (   0.5384686  -0.3108850   0.0506595), wk =   0.0051813
        k(   11) = (   0.5982985  -0.3454278   0.0562883), wk =   0.0051813
        k(   12) = (   0.6581283  -0.3799706   0.0619172), wk =   0.0051813
        k(   13) = (   0.7179582  -0.4145133   0.0675460), wk =   0.0051813
        k(   14) = (   0.7777880  -0.4490561   0.0731748), wk =   0.0051813
        k(   15) = (   0.8376179  -0.4835989   0.0788036), wk =   0.0051813
        k(   16) = (   0.8974477  -0.5181417   0.0844325), wk =   0.0051813
        k(   17) = (   0.9572775  -0.5526844   0.0900613), wk =   0.0051813
        k(   18) = (   1.0171074  -0.5872272   0.0956901), wk =   0.0051813
        k(   19) = (   1.0769372  -0.6217700   0.1013190), wk =   0.0051813
        k(   20) = (   1.1367671  -0.6563128   0.1069478), wk =   0.0051813
        k(   21) = (   1.1965969  -0.6908556   0.1125766), wk =   0.0051813
        k(   22) = (   1.2564268  -0.7253983   0.1182055), wk =   0.0051813
        k(   23) = (   1.3162566  -0.7599411   0.1238343), wk =   0.0051813
        k(   24) = (   1.3760865  -0.7944839   0.1294631), wk =   0.0051813
        k(   25) = (   1.4359163  -0.8290267   0.1350920), wk =   0.0051813
        k(   26) = (   1.4957462  -0.8635695   0.1407208), wk =   0.0051813
        k(   27) = (   1.5555760  -0.8981122   0.1463496), wk =   0.0051813
        k(   28) = (   1.6154059  -0.9326550   0.1519785), wk =   0.0051813
        k(   29) = (   1.6752357  -0.9671978   0.1576073), wk =   0.0051813
        k(   30) = (   1.7350655  -1.0017406   0.1632361), wk =   0.0051813
        k(   31) = (   1.7948954  -1.0362833   0.1688650), wk =   0.0051813
        k(   32) = (   1.7618046  -1.0935982   0.1688650), wk =   0.0051813
        k(   33) = (   1.7287139  -1.1509131   0.1688650), wk =   0.0051813
        k(   34) = (   1.6956231  -1.2082280   0.1688650), wk =   0.0051813
        k(   35) = (   1.6625323  -1.2655429   0.1688650), wk =   0.0051813
        k(   36) = (   1.6294416  -1.3228578   0.1688650), wk =   0.0051813
        k(   37) = (   1.5963508  -1.3801726   0.1688650), wk =   0.0051813
        k(   38) = (   1.5632601  -1.4374875   0.1688650), wk =   0.0051813
        k(   39) = (   1.5301693  -1.4948024   0.1688650), wk =   0.0051813
        k(   40) = (   1.4970785  -1.5521173   0.1688650), wk =   0.0051813
        k(   41) = (   1.4639878  -1.6094322   0.1688650), wk =   0.0051813
        k(   42) = (   1.4308970  -1.6667471   0.1688650), wk =   0.0051813
        k(   43) = (   1.3978062  -1.7240619   0.1688650), wk =   0.0051813
        k(   44) = (   1.3647155  -1.7813768   0.1688650), wk =   0.0051813
        k(   45) = (   1.3316247  -1.8386917   0.1688650), wk =   0.0051813
        k(   46) = (   1.2985339  -1.8960066   0.1688650), wk =   0.0051813
        k(   47) = (   1.2654432  -1.9533215   0.1688650), wk =   0.0051813
        k(   48) = (   1.2323524  -2.0106364   0.1688650), wk =   0.0051813
        k(   49) = (   1.1992617  -2.0679512   0.1688650), wk =   0.0051813
        k(   50) = (   1.1661709  -2.1252661   0.1688650), wk =   0.0051813
        k(   51) = (   1.1330801  -2.1825810   0.1688650), wk =   0.0051813
        k(   52) = (   1.1330801  -2.1459096   0.2251533), wk =   0.0051813
        k(   53) = (   1.1330801  -2.1092381   0.2814416), wk =   0.0051813
        k(   54) = (   1.1330801  -2.0725667   0.3377299), wk =   0.0051813
        k(   55) = (   1.1330801  -2.0358952   0.3940182), wk =   0.0051813
        k(   56) = (   1.1330801  -1.9992238   0.4503066), wk =   0.0051813
        k(   57) = (   1.1330801  -1.9625524   0.5065949), wk =   0.0051813
        k(   58) = (   1.0953108  -1.8971339   0.5065949), wk =   0.0051813
        k(   59) = (   1.0575415  -1.8317155   0.5065949), wk =   0.0051813
        k(   60) = (   1.0197721  -1.7662971   0.5065949), wk =   0.0051813
        k(   61) = (   0.9820028  -1.7008787   0.5065949), wk =   0.0051813
        k(   62) = (   0.9442334  -1.6354603   0.5065949), wk =   0.0051813
        k(   63) = (   0.9064641  -1.5700419   0.5065949), wk =   0.0051813
        k(   64) = (   0.8686948  -1.5046235   0.5065949), wk =   0.0051813
        k(   65) = (   0.8309254  -1.4392051   0.5065949), wk =   0.0051813
        k(   66) = (   0.7931561  -1.3737867   0.5065949), wk =   0.0051813
        k(   67) = (   0.7553868  -1.3083682   0.5065949), wk =   0.0051813
        k(   68) = (   0.7176174  -1.2429498   0.5065949), wk =   0.0051813
        k(   69) = (   0.6798481  -1.1775314   0.5065949), wk =   0.0051813
        k(   70) = (   0.6420787  -1.1121130   0.5065949), wk =   0.0051813
        k(   71) = (   0.6043094  -1.0466946   0.5065949), wk =   0.0051813
        k(   72) = (   0.5665401  -0.9812762   0.5065949), wk =   0.0051813
        k(   73) = (   0.5287707  -0.9158578   0.5065949), wk =   0.0051813
        k(   74) = (   0.4910014  -0.8504394   0.5065949), wk =   0.0051813
        k(   75) = (   0.4532321  -0.7850209   0.5065949), wk =   0.0051813
        k(   76) = (   0.4154627  -0.7196025   0.5065949), wk =   0.0051813
        k(   77) = (   0.3776934  -0.6541841   0.5065949), wk =   0.0051813
        k(   78) = (   0.3399240  -0.5887657   0.5065949), wk =   0.0051813
        k(   79) = (   0.3021547  -0.5233473   0.5065949), wk =   0.0051813
        k(   80) = (   0.2643854  -0.4579289   0.5065949), wk =   0.0051813
        k(   81) = (   0.2266160  -0.3925105   0.5065949), wk =   0.0051813
        k(   82) = (   0.1888467  -0.3270921   0.5065949), wk =   0.0051813
        k(   83) = (   0.1510774  -0.2616736   0.5065949), wk =   0.0051813
        k(   84) = (   0.1133080  -0.1962552   0.5065949), wk =   0.0051813
        k(   85) = (   0.0755387  -0.1308368   0.5065949), wk =   0.0051813
        k(   86) = (   0.0377693  -0.0654184   0.5065949), wk =   0.0051813
        k(   87) = (   0.0000000   0.0000000   0.5065949), wk =   0.0051813
        k(   88) = (   0.0000000  -0.0000000   0.4559354), wk =   0.0051813
        k(   89) = (  -0.0000000   0.0000000   0.4052759), wk =   0.0051813
        k(   90) = (   0.0000000  -0.0000000   0.3546164), wk =   0.0051813
        k(   91) = (   0.0000000   0.0000000   0.3039569), wk =   0.0051813
        k(   92) = (   0.0000000   0.0000000   0.2532974), wk =   0.0051813
        k(   93) = (   0.0000000   0.0000000   0.2026380), wk =   0.0051813
        k(   94) = (   0.0000000   0.0000000   0.1519785), wk =   0.0051813
        k(   95) = (   0.0000000   0.0000000   0.1013190), wk =   0.0051813
        k(   96) = (   0.0000000   0.0000000   0.0506595), wk =   0.0051813
        k(   97) = (   0.0000000   0.0000000   0.0000000), wk =   0.0051813
        k(   98) = (   0.0409452  -0.0709191  -0.0000000), wk =   0.0051813
        k(   99) = (   0.0818904  -0.1418383  -0.0000000), wk =   0.0051813
        k(  100) = (   0.1228355  -0.2127574  -0.0000000), wk =   0.0051813
        k(  101) = (   0.1637807  -0.2836765  -0.0000000), wk =   0.0051813
        k(  102) = (   0.2047259  -0.3545956  -0.0000000), wk =   0.0051813
        k(  103) = (   0.2456711  -0.4255148  -0.0000000), wk =   0.0051813
        k(  104) = (   0.2866162  -0.4964339  -0.0000000), wk =   0.0051813
        k(  105) = (   0.3275614  -0.5673530  -0.0000000), wk =   0.0051813
        k(  106) = (   0.3685066  -0.6382722  -0.0000000), wk =   0.0051813
        k(  107) = (   0.4094518  -0.7091913  -0.0000000), wk =   0.0051813
        k(  108) = (   0.4503970  -0.7801104  -0.0000000), wk =   0.0051813
        k(  109) = (   0.4913421  -0.8510295  -0.0000000), wk =   0.0051813
        k(  110) = (   0.5322873  -0.9219487  -0.0000000), wk =   0.0051813
        k(  111) = (   0.5732325  -0.9928678  -0.0000000), wk =   0.0051813
        k(  112) = (   0.6141777  -1.0637869  -0.0000000), wk =   0.0051813
        k(  113) = (   0.6551228  -1.1347060  -0.0000000), wk =   0.0051813
        k(  114) = (   0.6960680  -1.2056252  -0.0000000), wk =   0.0051813
        k(  115) = (   0.7370132  -1.2765443  -0.0000000), wk =   0.0051813
        k(  116) = (   0.7779584  -1.3474634  -0.0000000), wk =   0.0051813
        k(  117) = (   0.8189036  -1.4183826  -0.0000000), wk =   0.0051813
        k(  118) = (   0.8598487  -1.4893017  -0.0000000), wk =   0.0051813
        k(  119) = (   0.9007939  -1.5602208  -0.0000000), wk =   0.0051813
        k(  120) = (   0.9417391  -1.6311399  -0.0000000), wk =   0.0051813
        k(  121) = (   0.9826843  -1.7020591  -0.0000000), wk =   0.0051813
        k(  122) = (   1.0236294  -1.7729782  -0.0000000), wk =   0.0051813
        k(  123) = (   1.0645746  -1.8438973  -0.0000000), wk =   0.0051813
        k(  124) = (   1.1055198  -1.9148165  -0.0000000), wk =   0.0051813
        k(  125) = (   1.1464650  -1.9857356  -0.0000000), wk =   0.0051813
        k(  126) = (   1.1874102  -2.0566547  -0.0000000), wk =   0.0051813
        k(  127) = (   1.2283553  -2.1275738  -0.0000000), wk =   0.0051813
        k(  128) = (   1.2124761  -2.1184060   0.0562883), wk =   0.0051813
        k(  129) = (   1.1965969  -2.1092381   0.1125766), wk =   0.0051813
        k(  130) = (   1.1807177  -2.1000703   0.1688650), wk =   0.0051813
        k(  131) = (   1.1648385  -2.0909024   0.2251533), wk =   0.0051813
        k(  132) = (   1.1489593  -2.0817345   0.2814416), wk =   0.0051813
        k(  133) = (   1.1330801  -2.0725667   0.3377299), wk =   0.0051813
        k(  134) = (   1.0197721  -2.0725667   0.3377299), wk =   0.0051813
        k(  135) = (   0.9064641  -2.0725667   0.3377299), wk =   0.0051813
        k(  136) = (   0.7931561  -2.0725667   0.3377299), wk =   0.0051813
        k(  137) = (   0.6798481  -2.0725667   0.3377299), wk =   0.0051813
        k(  138) = (   0.5665401  -2.0725667   0.3377299), wk =   0.0051813
        k(  139) = (   0.4532321  -2.0725667   0.3377299), wk =   0.0051813
        k(  140) = (   0.3399240  -2.0725667   0.3377299), wk =   0.0051813
        k(  141) = (   0.2266160  -2.0725667   0.3377299), wk =   0.0051813
        k(  142) = (   0.1133080  -2.0725667   0.3377299), wk =   0.0051813
        k(  143) = (   0.0000000  -2.0725667   0.3377299), wk =   0.0051813
        k(  144) = (   0.0000000  -2.0505638   0.3715029), wk =   0.0051813
        k(  145) = (  -0.0000000  -2.0285610   0.4052759), wk =   0.0051813
        k(  146) = (   0.0000000  -2.0065581   0.4390489), wk =   0.0051813
        k(  147) = (   0.0000000  -1.9845552   0.4728219), wk =   0.0051813
        k(  148) = (  -0.0000000  -1.9625524   0.5065949), wk =   0.0051813
        k(  149) = (   0.0000000  -1.8971339   0.5065949), wk =   0.0051813
        k(  150) = (   0.0000000  -1.8317155   0.5065949), wk =   0.0051813
        k(  151) = (  -0.0000000  -1.7662971   0.5065949), wk =   0.0051813
        k(  152) = (  -0.0000000  -1.7008787   0.5065949), wk =   0.0051813
        k(  153) = (   0.0000000  -1.6354603   0.5065949), wk =   0.0051813
        k(  154) = (   0.0000000  -1.5700419   0.5065949), wk =   0.0051813
        k(  155) = (  -0.0000000  -1.5046235   0.5065949), wk =   0.0051813
        k(  156) = (   0.0000000  -1.4392051   0.5065949), wk =   0.0051813
        k(  157) = (   0.0000000  -1.3737867   0.5065949), wk =   0.0051813
        k(  158) = (  -0.0000000  -1.3083682   0.5065949), wk =   0.0051813
        k(  159) = (   0.0000000  -1.2429498   0.5065949), wk =   0.0051813
        k(  160) = (   0.0000000  -1.1775314   0.5065949), wk =   0.0051813
        k(  161) = (  -0.0000000  -1.1121130   0.5065949), wk =   0.0051813
        k(  162) = (  -0.0000000  -1.0466946   0.5065949), wk =   0.0051813
        k(  163) = (   0.0000000  -0.9812762   0.5065949), wk =   0.0051813
        k(  164) = (   0.0000000  -0.9158578   0.5065949), wk =   0.0051813
        k(  165) = (  -0.0000000  -0.8504394   0.5065949), wk =   0.0051813
        k(  166) = (   0.0000000  -0.7850209   0.5065949), wk =   0.0051813
        k(  167) = (   0.0000000  -0.7196025   0.5065949), wk =   0.0051813
        k(  168) = (  -0.0000000  -0.6541841   0.5065949), wk =   0.0051813
        k(  169) = (   0.0000000  -0.5887657   0.5065949), wk =   0.0051813
        k(  170) = (  -0.0000000  -0.5233473   0.5065949), wk =   0.0051813
        k(  171) = (   0.0000000  -0.4579289   0.5065949), wk =   0.0051813
        k(  172) = (   0.0000000  -0.3925105   0.5065949), wk =   0.0051813
        k(  173) = (  -0.0000000  -0.3270921   0.5065949), wk =   0.0051813
        k(  174) = (   0.0000000  -0.2616736   0.5065949), wk =   0.0051813
        k(  175) = (   0.0000000  -0.1962552   0.5065949), wk =   0.0051813
        k(  176) = (   0.0000000  -0.1308368   0.5065949), wk =   0.0051813
        k(  177) = (   0.0000000  -0.0654184   0.5065949), wk =   0.0051813
        k(  178) = (   0.0000000   0.0000000   0.5065949), wk =   0.0051813
        k(  179) = (   0.1794895  -0.1036283   0.4728219), wk =   0.0051813
        k(  180) = (   0.3589791  -0.2072567   0.4390489), wk =   0.0051813
        k(  181) = (   0.5384686  -0.3108850   0.4052759), wk =   0.0051813
        k(  182) = (   0.7179582  -0.4145133   0.3715029), wk =   0.0051813
        k(  183) = (   0.8974477  -0.5181417   0.3377299), wk =   0.0051813
        k(  184) = (   1.0769372  -0.6217700   0.3039569), wk =   0.0051813
        k(  185) = (   1.2564268  -0.7253983   0.2701839), wk =   0.0051813
        k(  186) = (   1.4359163  -0.8290267   0.2364109), wk =   0.0051813
        k(  187) = (   1.6154059  -0.9326550   0.2026380), wk =   0.0051813
        k(  188) = (   1.7948954  -1.0362833   0.1688650), wk =   0.0051813
        k(  189) = (   1.7758404  -1.0252819   0.2364109), wk =   0.0051813
        k(  190) = (   1.7567853  -1.0142805   0.3039569), wk =   0.0051813
        k(  191) = (   1.7377303  -1.0032790   0.3715029), wk =   0.0051813
        k(  192) = (   1.7186752  -0.9922776   0.4390489), wk =   0.0051813
        k(  193) = (   1.6996202  -0.9812762   0.5065949), wk =   0.0051813

                       cryst. coord.
        k(    1) = (   0.0000000   0.0000000   0.0000000), wk =   0.0051813
        k(    2) = (   0.0166667  -0.0000000   0.0000000), wk =   0.0051813
        k(    3) = (   0.0333333  -0.0000000   0.0000000), wk =   0.0051813
        k(    4) = (   0.0500000  -0.0000000   0.0000000), wk =   0.0051813
        k(    5) = (   0.0666667  -0.0000000   0.0000000), wk =   0.0051813
        k(    6) = (   0.0833333  -0.0000000   0.0000000), wk =   0.0051813
        k(    7) = (   0.1000000  -0.0000000   0.0000000), wk =   0.0051813
        k(    8) = (   0.1166667  -0.0000000   0.0000000), wk =   0.0051813
        k(    9) = (   0.1333333  -0.0000000   0.0000000), wk =   0.0051813
        k(   10) = (   0.1500000  -0.0000000   0.0000000), wk =   0.0051813
        k(   11) = (   0.1666667  -0.0000000   0.0000000), wk =   0.0051813
        k(   12) = (   0.1833333  -0.0000000   0.0000000), wk =   0.0051813
        k(   13) = (   0.2000000  -0.0000000   0.0000000), wk =   0.0051813
        k(   14) = (   0.2166667  -0.0000000   0.0000000), wk =   0.0051813
        k(   15) = (   0.2333333  -0.0000000   0.0000000), wk =   0.0051813
        k(   16) = (   0.2500000  -0.0000000   0.0000000), wk =   0.0051813
        k(   17) = (   0.2666667  -0.0000000   0.0000000), wk =   0.0051813
        k(   18) = (   0.2833333  -0.0000000   0.0000000), wk =   0.0051813
        k(   19) = (   0.3000000  -0.0000000   0.0000000), wk =   0.0051813
        k(   20) = (   0.3166667  -0.0000000   0.0000000), wk =   0.0051813
        k(   21) = (   0.3333333  -0.0000000   0.0000000), wk =   0.0051813
        k(   22) = (   0.3500000  -0.0000000   0.0000000), wk =   0.0051813
        k(   23) = (   0.3666667  -0.0000000   0.0000000), wk =   0.0051813
        k(   24) = (   0.3833333   0.0000000   0.0000000), wk =   0.0051813
        k(   25) = (   0.4000000  -0.0000000   0.0000000), wk =   0.0051813
        k(   26) = (   0.4166667  -0.0000000   0.0000000), wk =   0.0051813
        k(   27) = (   0.4333333  -0.0000000   0.0000000), wk =   0.0051813
        k(   28) = (   0.4500000  -0.0000000  -0.0000000), wk =   0.0051813
        k(   29) = (   0.4666667  -0.0000000   0.0000000), wk =   0.0051813
        k(   30) = (   0.4833333  -0.0000000   0.0000000), wk =   0.0051813
        k(   31) = (   0.5000000  -0.0000000   0.0000000), wk =   0.0051813
        k(   32) = (   0.5000000  -0.0092180   0.0092180), wk =   0.0051813
        k(   33) = (   0.5000000  -0.0184360   0.0184360), wk =   0.0051813
        k(   34) = (   0.5000000  -0.0276541   0.0276541), wk =   0.0051813
        k(   35) = (   0.5000000  -0.0368721   0.0368721), wk =   0.0051813
        k(   36) = (   0.5000000  -0.0460901   0.0460901), wk =   0.0051813
        k(   37) = (   0.5000000  -0.0553081   0.0553081), wk =   0.0051813
        k(   38) = (   0.5000000  -0.0645261   0.0645261), wk =   0.0051813
        k(   39) = (   0.5000000  -0.0737442   0.0737442), wk =   0.0051813
        k(   40) = (   0.5000000  -0.0829622   0.0829622), wk =   0.0051813
        k(   41) = (   0.5000000  -0.0921802   0.0921802), wk =   0.0051813
        k(   42) = (   0.5000000  -0.1013982   0.1013982), wk =   0.0051813
        k(   43) = (   0.5000000  -0.1106162   0.1106162), wk =   0.0051813
        k(   44) = (   0.5000000  -0.1198343   0.1198343), wk =   0.0051813
        k(   45) = (   0.5000000  -0.1290523   0.1290523), wk =   0.0051813
        k(   46) = (   0.5000000  -0.1382703   0.1382703), wk =   0.0051813
        k(   47) = (   0.5000000  -0.1474883   0.1474883), wk =   0.0051813
        k(   48) = (   0.5000000  -0.1567063   0.1567063), wk =   0.0051813
        k(   49) = (   0.5000000  -0.1659244   0.1659244), wk =   0.0051813
        k(   50) = (   0.5000000  -0.1751424   0.1751424), wk =   0.0051813
        k(   51) = (   0.5000000  -0.1843604   0.1843604), wk =   0.0051813
        k(   52) = (   0.5526066  -0.1229069   0.2369670), wk =   0.0051813
        k(   53) = (   0.6052132  -0.0614535   0.2895736), wk =   0.0051813
        k(   54) = (   0.6578198  -0.0000000   0.3421802), wk =   0.0051813
        k(   55) = (   0.7104264   0.0614535   0.3947868), wk =   0.0051813
        k(   56) = (   0.7630330   0.1229069   0.4473934), wk =   0.0051813
        k(   57) = (   0.8156396   0.1843604   0.5000000), wk =   0.0051813
        k(   58) = (   0.8051183   0.1948817   0.5000000), wk =   0.0051813
        k(   59) = (   0.7945970   0.2054030   0.5000000), wk =   0.0051813
        k(   60) = (   0.7840756   0.2159244   0.5000000), wk =   0.0051813
        k(   61) = (   0.7735543   0.2264457   0.5000000), wk =   0.0051813
        k(   62) = (   0.7630330   0.2369670   0.5000000), wk =   0.0051813
        k(   63) = (   0.7525117   0.2474883   0.5000000), wk =   0.0051813
        k(   64) = (   0.7419904   0.2580096   0.5000000), wk =   0.0051813
        k(   65) = (   0.7314690   0.2685310   0.5000000), wk =   0.0051813
        k(   66) = (   0.7209477   0.2790523   0.5000000), wk =   0.0051813
        k(   67) = (   0.7104264   0.2895736   0.5000000), wk =   0.0051813
        k(   68) = (   0.6999051   0.3000949   0.5000000), wk =   0.0051813
        k(   69) = (   0.6893838   0.3106162   0.5000000), wk =   0.0051813
        k(   70) = (   0.6788624   0.3211376   0.5000000), wk =   0.0051813
        k(   71) = (   0.6683411   0.3316589   0.5000000), wk =   0.0051813
        k(   72) = (   0.6578198   0.3421802   0.5000000), wk =   0.0051813
        k(   73) = (   0.6472985   0.3527015   0.5000000), wk =   0.0051813
        k(   74) = (   0.6367772   0.3632228   0.5000000), wk =   0.0051813
        k(   75) = (   0.6262558   0.3737442   0.5000000), wk =   0.0051813
        k(   76) = (   0.6157345   0.3842655   0.5000000), wk =   0.0051813
        k(   77) = (   0.6052132   0.3947868   0.5000000), wk =   0.0051813
        k(   78) = (   0.5946919   0.4053081   0.5000000), wk =   0.0051813
        k(   79) = (   0.5841706   0.4158294   0.5000000), wk =   0.0051813
        k(   80) = (   0.5736492   0.4263508   0.5000000), wk =   0.0051813
        k(   81) = (   0.5631279   0.4368721   0.5000000), wk =   0.0051813
        k(   82) = (   0.5526066   0.4473934   0.5000000), wk =   0.0051813
        k(   83) = (   0.5420853   0.4579147   0.5000000), wk =   0.0051813
        k(   84) = (   0.5315640   0.4684360   0.5000000), wk =   0.0051813
        k(   85) = (   0.5210426   0.4789574   0.5000000), wk =   0.0051813
        k(   86) = (   0.5105213   0.4894787   0.5000000), wk =   0.0051813
        k(   87) = (   0.5000000   0.5000000   0.5000000), wk =   0.0051813
        k(   88) = (   0.4500000   0.4500000   0.4500000), wk =   0.0051813
        k(   89) = (   0.4000000   0.4000000   0.4000000), wk =   0.0051813
        k(   90) = (   0.3500000   0.3500000   0.3500000), wk =   0.0051813
        k(   91) = (   0.3000000   0.3000000   0.3000000), wk =   0.0051813
        k(   92) = (   0.2500000   0.2500000   0.2500000), wk =   0.0051813
        k(   93) = (   0.2000000   0.2000000   0.2000000), wk =   0.0051813
        k(   94) = (   0.1500000   0.1500000   0.1500000), wk =   0.0051813
        k(   95) = (   0.1000000   0.1000000   0.1000000), wk =   0.0051813
        k(   96) = (   0.0500000   0.0500000   0.0500000), wk =   0.0051813
        k(   97) = (   0.0000000   0.0000000   0.0000000), wk =   0.0051813
        k(   98) = (   0.0114060  -0.0114060   0.0000000), wk =   0.0051813
        k(   99) = (   0.0228120  -0.0228120   0.0000000), wk =   0.0051813
        k(  100) = (   0.0342180  -0.0342180   0.0000000), wk =   0.0051813
        k(  101) = (   0.0456240  -0.0456240   0.0000000), wk =   0.0051813
        k(  102) = (   0.0570300  -0.0570300   0.0000000), wk =   0.0051813
        k(  103) = (   0.0684360  -0.0684360   0.0000000), wk =   0.0051813
        k(  104) = (   0.0798420  -0.0798420   0.0000000), wk =   0.0051813
        k(  105) = (   0.0912481  -0.0912481   0.0000000), wk =   0.0051813
        k(  106) = (   0.1026541  -0.1026541   0.0000000), wk =   0.0051813
        k(  107) = (   0.1140601  -0.1140601   0.0000000), wk =   0.0051813
        k(  108) = (   0.1254661  -0.1254661   0.0000000), wk =   0.0051813
        k(  109) = (   0.1368721  -0.1368721   0.0000000), wk =   0.0051813
        k(  110) = (   0.1482781  -0.1482781   0.0000000), wk =   0.0051813
        k(  111) = (   0.1596841  -0.1596841   0.0000000), wk =   0.0051813
        k(  112) = (   0.1710901  -0.1710901   0.0000000), wk =   0.0051813
        k(  113) = (   0.1824961  -0.1824961   0.0000000), wk =   0.0051813
        k(  114) = (   0.1939021  -0.1939021   0.0000000), wk =   0.0051813
        k(  115) = (   0.2053081  -0.2053081   0.0000000), wk =   0.0051813
        k(  116) = (   0.2167141  -0.2167141   0.0000000), wk =   0.0051813
        k(  117) = (   0.2281201  -0.2281201   0.0000000), wk =   0.0051813
        k(  118) = (   0.2395261  -0.2395261   0.0000000), wk =   0.0051813
        k(  119) = (   0.2509321  -0.2509321   0.0000000), wk =   0.0051813
        k(  120) = (   0.2623382  -0.2623382   0.0000000), wk =   0.0051813
        k(  121) = (   0.2737442  -0.2737442   0.0000000), wk =   0.0051813
        k(  122) = (   0.2851502  -0.2851502   0.0000000), wk =   0.0051813
        k(  123) = (   0.2965562  -0.2965562   0.0000000), wk =   0.0051813
        k(  124) = (   0.3079622  -0.3079622   0.0000000), wk =   0.0051813
        k(  125) = (   0.3193682  -0.3193682   0.0000000), wk =   0.0051813
        k(  126) = (   0.3307742  -0.3307742   0.0000000), wk =   0.0051813
        k(  127) = (   0.3421802  -0.3421802   0.0000000), wk =   0.0051813
        k(  128) = (   0.3947868  -0.2851502   0.0570300), wk =   0.0051813
        k(  129) = (   0.4473934  -0.2281201   0.1140601), wk =   0.0051813
        k(  130) = (   0.5000000  -0.1710901   0.1710901), wk =   0.0051813
        k(  131) = (   0.5526066  -0.1140601   0.2281201), wk =   0.0051813
        k(  132) = (   0.6052132  -0.0570300   0.2851502), wk =   0.0051813
        k(  133) = (   0.6578198  -0.0000000   0.3421802), wk =   0.0051813
        k(  134) = (   0.6420378  -0.0000000   0.3579622), wk =   0.0051813
        k(  135) = (   0.6262558  -0.0000000   0.3737442), wk =   0.0051813
        k(  136) = (   0.6104739  -0.0000000   0.3895261), wk =   0.0051813
        k(  137) = (   0.5946919  -0.0000000   0.4053081), wk =   0.0051813
        k(  138) = (   0.5789099  -0.0000000   0.4210901), wk =   0.0051813
        k(  139) = (   0.5631279  -0.0000000   0.4368721), wk =   0.0051813
        k(  140) = (   0.5473459  -0.0000000   0.4526541), wk =   0.0051813
        k(  141) = (   0.5315640   0.0000000   0.4684360), wk =   0.0051813
        k(  142) = (   0.5157820  -0.0000000   0.4842180), wk =   0.0051813
        k(  143) = (   0.5000000  -0.0000000   0.5000000), wk =   0.0051813
        k(  144) = (   0.5315640   0.0368721   0.5315640), wk =   0.0051813
        k(  145) = (   0.5631279   0.0737442   0.5631279), wk =   0.0051813
        k(  146) = (   0.5946919   0.1106162   0.5946919), wk =   0.0051813
        k(  147) = (   0.6262558   0.1474883   0.6262558), wk =   0.0051813
        k(  148) = (   0.6578198   0.1843604   0.6578198), wk =   0.0051813
        k(  149) = (   0.6525591   0.1948817   0.6525591), wk =   0.0051813
        k(  150) = (   0.6472985   0.2054030   0.6472985), wk =   0.0051813
        k(  151) = (   0.6420378   0.2159244   0.6420378), wk =   0.0051813
        k(  152) = (   0.6367772   0.2264457   0.6367772), wk =   0.0051813
        k(  153) = (   0.6315165   0.2369670   0.6315165), wk =   0.0051813
        k(  154) = (   0.6262558   0.2474883   0.6262558), wk =   0.0051813
        k(  155) = (   0.6209952   0.2580096   0.6209952), wk =   0.0051813
        k(  156) = (   0.6157345   0.2685310   0.6157345), wk =   0.0051813
        k(  157) = (   0.6104739   0.2790523   0.6104739), wk =   0.0051813
        k(  158) = (   0.6052132   0.2895736   0.6052132), wk =   0.0051813
        k(  159) = (   0.5999525   0.3000949   0.5999525), wk =   0.0051813
        k(  160) = (   0.5946919   0.3106162   0.5946919), wk =   0.0051813
        k(  161) = (   0.5894312   0.3211376   0.5894312), wk =   0.0051813
        k(  162) = (   0.5841706   0.3316589   0.5841706), wk =   0.0051813
        k(  163) = (   0.5789099   0.3421802   0.5789099), wk =   0.0051813
        k(  164) = (   0.5736492   0.3527015   0.5736492), wk =   0.0051813
        k(  165) = (   0.5683886   0.3632228   0.5683886), wk =   0.0051813
        k(  166) = (   0.5631279   0.3737442   0.5631279), wk =   0.0051813
        k(  167) = (   0.5578673   0.3842655   0.5578673), wk =   0.0051813
        k(  168) = (   0.5526066   0.3947868   0.5526066), wk =   0.0051813
        k(  169) = (   0.5473459   0.4053081   0.5473459), wk =   0.0051813
        k(  170) = (   0.5420853   0.4158294   0.5420853), wk =   0.0051813
        k(  171) = (   0.5368246   0.4263508   0.5368246), wk =   0.0051813
        k(  172) = (   0.5315640   0.4368721   0.5315640), wk =   0.0051813
        k(  173) = (   0.5263033   0.4473934   0.5263033), wk =   0.0051813
        k(  174) = (   0.5210426   0.4579147   0.5210426), wk =   0.0051813
        k(  175) = (   0.5157820   0.4684360   0.5157820), wk =   0.0051813
        k(  176) = (   0.5105213   0.4789574   0.5105213), wk =   0.0051813
        k(  177) = (   0.5052607   0.4894787   0.5052607), wk =   0.0051813
        k(  178) = (   0.5000000   0.5000000   0.5000000), wk =   0.0051813
        k(  179) = (   0.5000000   0.4500000   0.4500000), wk =   0.0051813
        k(  180) = (   0.5000000   0.4000000   0.4000000), wk =   0.0051813
        k(  181) = (   0.5000000   0.3500000   0.3500000), wk =   0.0051813
        k(  182) = (   0.5000000   0.3000000   0.3000000), wk =   0.0051813
        k(  183) = (   0.5000000   0.2500000   0.2500000), wk =   0.0051813
        k(  184) = (   0.5000000   0.2000000   0.2000000), wk =   0.0051813
        k(  185) = (   0.5000000   0.1500000   0.1500000), wk =   0.0051813
        k(  186) = (   0.5000000   0.1000000   0.1000000), wk =   0.0051813
        k(  187) = (   0.5000000   0.0500000   0.0500000), wk =   0.0051813
        k(  188) = (   0.5000000  -0.0000000   0.0000000), wk =   0.0051813
        k(  189) = (   0.5631279   0.0684360   0.0684360), wk =   0.0051813
        k(  190) = (   0.6262558   0.1368721   0.1368721), wk =   0.0051813
        k(  191) = (   0.6893838   0.2053081   0.2053081), wk =   0.0051813
        k(  192) = (   0.7525117   0.2737442   0.2737442), wk =   0.0051813
        k(  193) = (   0.8156396   0.3421802   0.3421802), wk =   0.0051813

     Dense  grid:    59333 G-vectors     FFT dimensions: ( 120, 120, 120)

     Dynamical RAM for                 wfc:       0.71 MB

     Dynamical RAM for     wfc (w. buffer):       0.71 MB

     Dynamical RAM for           str. fact:       0.08 MB

     Dynamical RAM for           local pot:       0.00 MB

     Dynamical RAM for          nlocal pot:       0.38 MB

     Dynamical RAM for                qrad:       3.37 MB

     Dynamical RAM for          rho,v,vnew:       2.81 MB

     Dynamical RAM for           G-vectors:       0.12 MB

     Dynamical RAM for          h,s,v(r/c):       1.83 MB

     Dynamical RAM for          <psi|beta>:       0.33 MB

     Dynamical RAM for                 psi:       1.42 MB

     Dynamical RAM for                hpsi:       1.42 MB

     Dynamical RAM for      wfcinit/wfcrot:       2.33 MB

     Estimated static dynamical RAM per process >      10.23 MB

     Estimated max dynamical RAM per process >      15.22 MB

     Estimated total dynamical RAM >       3.80 GB

     Check: negative core charge=   -0.000024
     Generating pointlists ...
     new r_m :   0.0799 (alat units)  2.1438 (a.u.) for type    1
     new r_m :   0.0799 (alat units)  2.1438 (a.u.) for type    2
     new r_m :   0.0799 (alat units)  2.1438 (a.u.) for type    3

     The potential is recalculated from file :
     ./tmp/NiI2.save/charge-density

     Starting wfcs are   36 randomized atomic wfcs +  164 random wfcs

     Band Structure Calculation
     Davidson diagonalization with overlap

     Computing kpt #:     1  of    49 on this pool
     total cpu time spent up to now is       29.7 secs

     Computing kpt #:     2  of    49 on this pool
     total cpu time spent up to now is       42.3 secs

     Computing kpt #:     3  of    49 on this pool
     total cpu time spent up to now is       54.3 secs

     Computing kpt #:     4  of    49 on this pool
     total cpu time spent up to now is       67.7 secs

     Computing kpt #:     5  of    49 on this pool
     total cpu time spent up to now is       80.4 secs

     Computing kpt #:     6  of    49 on this pool
     total cpu time spent up to now is       92.3 secs

     Computing kpt #:     7  of    49 on this pool
     total cpu time spent up to now is      103.6 secs

     Computing kpt #:     8  of    49 on this pool
     total cpu time spent up to now is      116.8 secs

     Computing kpt #:     9  of    49 on this pool
     total cpu time spent up to now is      128.0 secs

     Computing kpt #:    10  of    49 on this pool
     total cpu time spent up to now is      139.0 secs

     Computing kpt #:    11  of    49 on this pool
     total cpu time spent up to now is      151.7 secs

     Computing kpt #:    12  of    49 on this pool
     total cpu time spent up to now is      165.7 secs

     Computing kpt #:    13  of    49 on this pool
     total cpu time spent up to now is      177.5 secs

     Computing kpt #:    14  of    49 on this pool
     total cpu time spent up to now is      189.3 secs

     Computing kpt #:    15  of    49 on this pool
     total cpu time spent up to now is      200.7 secs

     Computing kpt #:    16  of    49 on this pool
     total cpu time spent up to now is      211.5 secs

     Computing kpt #:    17  of    49 on this pool
     total cpu time spent up to now is      222.4 secs

     Computing kpt #:    18  of    49 on this pool
     total cpu time spent up to now is      233.1 secs

     Computing kpt #:    19  of    49 on this pool
     total cpu time spent up to now is      245.2 secs

     Computing kpt #:    20  of    49 on this pool
     total cpu time spent up to now is      258.6 secs

     Computing kpt #:    21  of    49 on this pool
     total cpu time spent up to now is      271.6 secs

     Computing kpt #:    22  of    49 on this pool
     total cpu time spent up to now is      282.4 secs

     Computing kpt #:    23  of    49 on this pool
     total cpu time spent up to now is      294.4 secs

     Computing kpt #:    24  of    49 on this pool
     total cpu time spent up to now is      307.3 secs

     Computing kpt #:    25  of    49 on this pool
     total cpu time spent up to now is      321.7 secs

     Computing kpt #:    26  of    49 on this pool
     total cpu time spent up to now is      334.6 secs

     Computing kpt #:    27  of    49 on this pool
     total cpu time spent up to now is      346.5 secs

     Computing kpt #:    28  of    49 on this pool
     total cpu time spent up to now is      358.4 secs

     Computing kpt #:    29  of    49 on this pool
     total cpu time spent up to now is      370.3 secs

     Computing kpt #:    30  of    49 on this pool
     total cpu time spent up to now is      382.3 secs

     Computing kpt #:    31  of    49 on this pool
     total cpu time spent up to now is      393.6 secs

     Computing kpt #:    32  of    49 on this pool
     total cpu time spent up to now is      405.4 secs

     Computing kpt #:    33  of    49 on this pool
     total cpu time spent up to now is      416.5 secs

     Computing kpt #:    34  of    49 on this pool
     total cpu time spent up to now is      428.1 secs

     Computing kpt #:    35  of    49 on this pool
     total cpu time spent up to now is      439.4 secs

     Computing kpt #:    36  of    49 on this pool
     total cpu time spent up to now is      450.0 secs

     Computing kpt #:    37  of    49 on this pool
     total cpu time spent up to now is      461.8 secs

     Computing kpt #:    38  of    49 on this pool
     total cpu time spent up to now is      472.9 secs

     Computing kpt #:    39  of    49 on this pool
     total cpu time spent up to now is      484.4 secs

     Computing kpt #:    40  of    49 on this pool
     total cpu time spent up to now is      495.5 secs

     Computing kpt #:    41  of    49 on this pool
     total cpu time spent up to now is      511.1 secs

     Computing kpt #:    42  of    49 on this pool
     total cpu time spent up to now is      521.9 secs

     Computing kpt #:    43  of    49 on this pool
     total cpu time spent up to now is      533.1 secs

     Computing kpt #:    44  of    49 on this pool
     total cpu time spent up to now is      545.8 secs

     Computing kpt #:    45  of    49 on this pool
     total cpu time spent up to now is      558.5 secs

     Computing kpt #:    46  of    49 on this pool
     total cpu time spent up to now is      570.4 secs

     Computing kpt #:    47  of    49 on this pool
     total cpu time spent up to now is      582.1 secs

     Computing kpt #:    48  of    49 on this pool
     total cpu time spent up to now is      593.9 secs

     Computing kpt #:    49  of    49 on this pool
     total cpu time spent up to now is      604.2 secs

     ethr =  1.56E-13,  avg # of iterations = 40.9

     total cpu time spent up to now is      604.2 secs

     End of band structure calculation

 ------ SPIN UP ------------


          k = 0.0000 0.0000 0.0000 (  7403 PWs)   bands (ev):

  -102.7849-101.7796 -61.7029 -61.6534 -61.6534 -60.6054 -60.6054 -60.5998
    -8.3135  -8.2341  -7.5148  -7.3974   0.3875   0.9740   1.7883   1.7883
     2.5050   2.5050   3.0504   3.2526   3.2526   3.5819   4.0362   4.0362
     4.2445   4.3041   4.4280   4.4280   4.4853   4.4853   5.4254   5.4254
     5.9229   5.9229   8.6079   9.6566   9.7967   9.8215  11.5872  11.5872
    11.7287  11.7287  12.1158  12.5823  13.9993  14.0935  14.0935  14.3118
    14.3118  14.3936  15.5905  15.8021  15.8711  16.3648  16.3648  16.4182
    16.4182  16.9178  16.9178  16.9750  17.0622  17.5521  17.5521  19.0984
    19.2925  19.3264  19.3264  20.7514  20.7514  21.0822  21.0822  21.1000
    21.3712  22.7050  22.7050  23.3005  24.5067  25.0205  25.0205  25.1415
    25.1415  25.5188  25.8535  26.2691  26.5726  27.5119  27.5119  27.7103
    27.7103  30.3896  30.9225  30.9225  31.7275  32.3453  32.4133  32.5114
    32.5114  32.6054  33.2750  33.4596  33.7566  33.8995  34.1588  34.1588
    34.2739  34.2739  34.3673  34.5030  34.5030  34.5857  34.5857  35.4552
    35.4552  35.5370  35.5370  36.5123  36.5123  36.5331  36.5331  36.6082
    36.6082  36.7381  36.7381  37.8897  38.3005  39.4870  39.4870  40.0771
    40.3448  40.5345  40.5679  40.6966  40.9120  40.9120  41.0820  41.0820
    41.2003  41.2650  41.3169  41.3169  41.9968  41.9968  42.2027  42.5472
    42.5824  42.8240  42.8240  43.1856  43.1856  43.2962  43.5863  43.6930
    43.6930  44.0046  44.3690  44.5555  44.5555  44.8345  44.9719  45.2127
    45.2127  45.4632  45.9245  45.9245  46.9091  47.3128  47.8070  47.8070
    47.8502  47.8502  48.1421  48.1565  48.4785  48.4785  48.7609  49.0638
    49.2281  49.2281  49.2608  49.2608  49.4524  49.6169  49.6169  49.9770
    50.3457  50.3457  50.4120  50.4120  50.4888  50.4888  50.5301  50.5301
    50.6390  50.6390  51.1406  51.1406  51.3289  51.3289  52.2256  52.2256

          k = 0.0598-0.0345 0.0056 (  7418 PWs)   bands (ev):

  -102.7857-101.7805 -61.7046 -61.6710 -61.6622 -60.6225 -60.6137 -60.6018
    -8.3116  -8.2321  -7.5137  -7.3966   0.3892   0.9758   1.7676   1.7757
     2.4843   2.4952   3.0588   3.2405   3.2432   3.5610   4.0232   4.0249
     4.2461   4.2721   4.4296   4.4401   4.4765   4.4848   5.3983   5.4118
     5.8944   5.9059   8.6234   9.6740   9.8140   9.8314  11.5588  11.5948
    11.7173  11.7358  12.1097  12.6000  13.9969  14.0561  14.0948  14.2775
    14.3186  14.4088  15.6343  15.8227  15.8707  16.2337  16.2507  16.5529
    16.5777  16.6799  16.8736  17.0067  17.1859  17.6009  17.6267  19.1075
    19.3088  19.3118  19.3185  20.6430  20.7659  21.0593  21.0630  21.2338
    21.4026  22.6017  22.7309  23.4181  24.4440  24.8700  24.9175  25.2506
    25.3096  25.5112  25.8582  26.3049  26.6172  27.3743  27.4211  27.7841
    27.8547  30.4076  30.8586  30.9122  31.7515  32.2795  32.3066  32.3525
    32.5264  32.8386  33.2748  33.4424  33.6652  33.8338  34.0308  34.0807
    34.1121  34.2073  34.3979  34.3996  34.4815  34.6069  34.6569  35.5709
    35.6158  35.6301  35.6794  36.2351  36.2597  36.2967  36.3217  36.8443
    36.8933  36.9825  37.0417  37.9406  38.3264  39.4502  39.4848  40.0918
    40.2477  40.3934  40.5270  40.5575  40.8523  41.0788  41.0920  41.1176
    41.1743  41.1761  41.2970  41.3480  42.1025  42.1873  42.2231  42.5169
    42.5349  42.6800  42.7796  43.1055  43.1433  43.2512  43.4305  43.7617
    43.8748  43.9471  44.4678  44.5469  44.5667  44.9005  44.9388  45.2810
    45.3599  45.4489  45.8354  45.9036  46.9182  47.2462  47.7802  47.8147
    47.8267  47.8860  48.0820  48.1615  48.4555  48.4664  48.6242  48.9130
    49.2115  49.2652  49.2737  49.3670  49.4138  49.5566  49.6039  49.9730
    50.2349  50.2355  50.3407  50.3453  50.5010  50.5239  50.6723  50.6971
    50.8015  50.8593  51.1405  51.1707  51.3186  51.3617  51.9512  52.3345

          k = 0.1197-0.0691 0.0113 (  7421 PWs)   bands (ev):

  -102.7859-101.7807 -61.7000 -61.6737 -61.6707 -60.6258 -60.6218 -60.5960
    -8.3057  -8.2264  -7.5102  -7.3935   0.3963   0.9813   1.7606   1.7715
     2.4593   2.4913   3.0826   3.2281   3.2319   3.5485   3.9946   3.9981
     4.2269   4.2517   4.4278   4.4320   4.4847   4.4865   5.3612   5.4015
     5.8601   5.8945   8.6689   9.7252   9.8589   9.8665  11.4852  11.6191
    11.6870  11.7568  12.0917  12.6527  13.9622  13.9869  14.1076  14.1841
    14.3386  14.4539  15.7540  15.7862  15.9257  16.0880  16.2323  16.3994
    16.7081  16.7800  16.7879  16.8899  17.3754  17.7203  17.8176  19.1350
    19.2587  19.2974  19.3688  20.4806  20.8133  20.9928  21.0099  21.4601
    21.5132  22.4096  22.8120  23.6535  24.2403  24.7770  24.7820  25.4086
    25.4744  25.4918  25.8670  26.4054  26.7552  27.1767  27.2744  27.8914
    28.0736  30.4479  30.6983  30.8821  31.8195  32.0911  32.1071  32.1707
    32.5671  33.0264  33.3593  33.3880  33.4242  33.6441  33.7332  33.8805
    33.9375  34.0608  34.2010  34.2246  34.5060  34.7234  34.7982  35.7749
    35.8151  35.8392  35.9785  36.0135  36.0261  36.0677  36.1883  37.0751
    37.2540  37.2884  37.4814  38.0947  38.4070  39.3467  39.4806  39.7602
    40.1326  40.1496  40.5010  40.5469  40.8182  40.8602  41.1361  41.1521
    41.1786  41.2134  41.3195  41.4053  42.1150  42.2451  42.4067  42.4563
    42.5824  42.6007  42.6473  42.8682  43.0889  43.1206  43.3332  43.7890
    43.8525  44.0457  44.5219  44.5912  44.7604  44.8525  45.0440  45.3899
    45.5717  45.6200  45.6698  45.8783  46.9441  47.1187  47.5993  47.6900
    47.7116  47.8941  47.9013  48.2547  48.4394  48.4484  48.5051  48.8235
    49.1150  49.2337  49.2500  49.3033  49.4298  49.5109  49.5486  49.9935
    50.0450  50.1434  50.2939  50.3219  50.5778  50.6775  50.8915  50.9154
    51.0089  51.0561  51.2888  51.3471  51.3523  51.4715  51.8145  52.6106

          k = 0.1795-0.1036 0.0169 (  7432 PWs)   bands (ev):

  -102.7866-101.7813 -61.7043 -61.6856 -61.6748 -60.6387 -60.6267 -60.6002
    -8.2959  -8.2170  -7.5045  -7.3885   0.4084   0.9878   1.7396   1.7689
     2.4173   2.4874   3.1170   3.1900   3.2234   3.5214   3.9171   3.9708
     4.1684   4.2582   4.3750   4.4299   4.4885   4.5059   5.2980   5.3884
     5.7998   5.8781   8.7416   9.8058   9.8985   9.9478  11.3793  11.6461
    11.6601  11.7912  12.0633  12.7262  13.8291  13.9572  14.0540  14.1313
    14.3723  14.5225  15.6732  15.9232  15.9495  16.0294  16.1286  16.3445
    16.6483  16.7561  16.8884  16.9980  17.5110  17.8705  18.0707  19.1789
    19.1827  19.2698  19.4613  20.3479  20.8886  20.8892  20.9323  21.6185
    21.7729  22.2075  22.9352  23.7862  24.0852  24.6392  24.7659  25.4650
    25.5762  25.5946  25.8661  26.5387  26.9825  26.9896  27.1349  27.9761
    28.3058  30.3507  30.6298  30.8344  31.7982  31.8788  31.9150  31.9433
    32.6287  32.9592  33.0860  33.2278  33.3523  33.4175  33.6230  33.6515
    33.8056  33.8952  34.0504  34.0940  34.4544  34.8562  34.9420  35.3879
    35.7472  35.9112  35.9343  36.1190  36.1378  36.4508  36.5044  37.2428
    37.4742  37.7247  37.9620  38.3391  38.5405  39.1921  39.2456  39.4836
    39.6563  40.1901  40.4585  40.4872  40.7692  40.7813  41.1145  41.2081
    41.2125  41.2156  41.4042  41.5076  41.6492  42.0035  42.2816  42.3969
    42.6654  42.7760  42.8248  42.8924  42.9666  43.0216  43.3223  43.5765
    43.6632  44.4445  44.4777  44.6025  44.6347  45.0912  45.2714  45.3276
    45.3791  45.8982  46.0060  46.0419  46.9791  46.9815  47.3576  47.4137
    47.4607  47.5765  47.6436  48.2730  48.3655  48.5735  48.7114  48.8587
    48.9995  49.0942  49.0979  49.2190  49.3469  49.5002  49.5728  49.9397
    49.9520  50.1817  50.2224  50.3070  50.6953  50.8020  50.9249  51.0038
    51.2063  51.4825  51.4889  51.5768  51.5899  51.6134  52.0453  52.5758

          k = 0.2393-0.1382 0.0225 (  7436 PWs)   bands (ev):

  -102.7869-101.7816 -61.7060 -61.6890 -61.6760 -60.6418 -60.6281 -60.6054
    -8.2821  -8.2037  -7.4967  -7.3815   0.4256   0.9971   1.7154   1.7710
     2.3680   2.4879   3.1438   3.1861   3.2012   3.4985   3.8299   3.9232
     4.1282   4.2630   4.3130   4.4202   4.4944   4.5270   5.2209   5.3760
     5.7272   5.8647   8.8373   9.9096   9.9429  10.0554  11.2606  11.6032
    11.7162  11.8387  12.0274  12.8120  13.6849  13.8652  13.9467  14.1614
    14.4168  14.6042  15.5568  15.8229  15.8524  16.1281  16.1660  16.5286
    16.5302  16.6314  17.0577  17.2069  17.6122  18.0272  18.3509  19.0867
    19.2452  19.2463  19.5842  20.2659  20.7572  20.8413  20.9860  21.7995
    22.0202  22.0699  23.0912  23.5175  24.2995  24.5068  24.7786  25.4351
    25.7084  25.7501  25.8379  26.6800  26.7954  27.0335  27.3016  28.0327
    28.5450  30.0620  30.7234  30.7698  31.4299  31.5038  31.8060  32.0247
    32.6855  32.7052  32.7706  32.8348  32.9893  33.2614  33.3504  33.6602
    33.7783  33.9704  34.0233  34.0252  34.3295  34.9506  34.9715  35.0666
    35.6184  35.8155  36.0461  36.1687  36.4083  36.9108  37.0251  37.3454
    37.6463  38.1725  38.4611  38.6342  38.7265  38.7299  39.0165  39.1371
    39.5131  40.0666  40.2599  40.4089  40.7221  40.9786  41.0112  41.1311
    41.2374  41.2651  41.2959  41.4575  41.6742  41.7937  41.8323  42.2904
    42.6488  42.7238  42.7601  42.9354  43.0280  43.2572  43.3281  43.4933
    43.5327  44.4378  44.5037  44.5392  44.8298  45.1255  45.1847  45.2205
    45.8272  45.9589  46.4179  46.4679  46.8493  46.9872  47.0720  47.0920
    47.1495  47.1795  47.3552  48.1980  48.3085  48.5275  48.7303  48.8358
    48.9167  48.9907  49.1803  49.2596  49.3173  49.4758  49.6111  49.8374
    49.8376  50.2317  50.2744  50.3238  50.8416  50.8853  51.0351  51.0460
    51.4652  51.7081  51.7516  51.7703  51.7729  51.9518  52.3740  52.4618

          k = 0.2991-0.1727 0.0281 (  7454 PWs)   bands (ev):

  -102.7879-101.7827 -61.7161 -61.6995 -61.6885 -60.6529 -60.6413 -60.6159
    -8.2647  -8.1869  -7.4867  -7.3727   0.4466   1.0084   1.6755   1.7566
     2.3068   2.4755   3.1102   3.1735   3.2209   3.4560   3.7066   3.8694
     4.0920   4.2298   4.2817   4.4012   4.4998   4.5325   5.1218   5.3523
     5.6330   5.8334   8.9500   9.9814  10.0262  10.1829  11.1424  11.5699
    11.7853  11.8970  11.9881  12.9011  13.5341  13.7100  13.8683  14.1976
    14.4735  14.6827  15.4578  15.5966  15.7061  16.3007  16.3289  16.4190
    16.5613  16.7493  17.2263  17.4127  17.6878  18.1707  18.6187  19.0064
    19.2418  19.3264  19.7242  20.2378  20.6203  20.7451  21.0997  21.8535
    22.0123  22.3756  23.1749  23.2717  24.3802  24.5003  24.8689  25.4017
    25.7687  25.8466  25.9294  26.6163  26.8212  26.9861  27.6595  28.0630
    28.7867  29.7277  30.6783  30.8089  31.0276  31.0746  31.6984  32.1069
    32.2455  32.3687  32.5721  32.5940  32.8040  33.0241  33.1556  33.4749
    33.7345  33.9882  34.0010  34.1383  34.2535  34.6508  35.0698  35.1670
    35.5849  35.7612  36.1106  36.2525  36.6810  37.3597  37.3927  37.5686
    37.7800  38.1934  38.5912  38.6079  38.6975  38.9805  38.9806  39.0751
    39.6078  39.6328  40.3267  40.3405  40.6358  40.6521  40.8227  40.9954
    41.1149  41.3611  41.4174  41.4189  41.4990  41.8210  41.8917  42.1579
    42.3724  42.6565  42.7608  42.7611  42.7805  43.2071  43.5857  43.5979
    43.6719  44.4251  44.4304  44.4504  44.9800  44.9875  45.1687  45.5248
    46.0223  46.2687  46.7009  46.7260  46.7274  46.7538  46.7868  46.8033
    46.9211  47.0670  47.1472  48.0448  48.2621  48.3246  48.5365  48.6439
    48.6933  49.0971  49.3112  49.3834  49.4148  49.5189  49.5661  49.6995
    50.0948  50.2129  50.3480  50.3930  50.9454  51.0164  51.1334  51.2333
    51.5721  51.6436  51.7332  51.9953  52.0591  52.2097  52.4287  52.4357

          k = 0.3590-0.2073 0.0338 (  7457 PWs)   bands (ev):

  -102.7881-101.7828 -61.7218 -61.6980 -61.6903 -60.6535 -60.6427 -60.6210
    -8.2434  -8.1663  -7.4748  -7.3622   0.4726   1.0221   1.6343   1.7607
     2.2415   2.4796   3.0614   3.1562   3.2728   3.4215   3.5729   3.8204
     4.0688   4.1699   4.2806   4.3798   4.5073   4.5417   5.0155   5.3375
     5.5384   5.8197   9.0746  10.0022  10.1369  10.3248  11.0444  11.5550
    11.8665  11.9548  11.9668  12.9927  13.3921  13.5485  13.7768  14.2411
    14.5431  14.7356  15.3432  15.3998  15.6083  16.3231  16.3239  16.5236
    16.6713  16.9819  17.3971  17.6217  17.7564  18.2847  18.7306  19.0872
    19.2750  19.4226  19.8405  20.2617  20.5283  20.6534  21.2269  21.7090
    22.2516  22.6861  22.8251  23.4723  24.2614  24.5389  25.1185  25.3574
    25.6667  26.0230  26.1150  26.4474  26.9636  27.0030  28.0428  28.0743
    29.0299  29.3756  30.4535  30.6154  30.7256  30.7886  31.6569  31.7820
    31.8924  32.0773  32.1419  32.5745  32.6980  32.9028  33.0057  33.2843
    33.7261  33.8400  33.9232  34.0148  34.1671  34.8895  35.1640  35.2467
    35.6101  35.7355  36.1333  36.3705  36.9372  37.3956  37.6622  37.7529
    37.8796  38.0830  38.1377  38.5079  38.9189  39.1549  39.2272  39.4664
    39.4945  39.8246  40.0563  40.3496  40.4120  40.5230  40.6778  40.6792
    40.9661  41.0724  41.4632  41.5213  41.5372  41.9164  41.9675  42.0656
    42.2809  42.3543  42.6018  42.6464  42.7712  43.1550  43.5947  43.6857
    43.7728  44.4380  44.4478  44.5834  44.9130  44.9943  45.1333  45.9919
    46.0410  46.2470  46.3245  46.4376  46.5686  46.7335  46.7490  46.8119
    46.9084  47.2505  47.3261  47.8291  48.0769  48.2296  48.3108  48.4805
    48.5929  48.9144  49.3356  49.3801  49.5956  49.5958  49.7427  49.8688
    50.1022  50.3571  50.5217  50.5318  51.0147  51.1232  51.2124  51.2326
    51.4737  51.6603  51.7417  51.8736  51.9195  52.3131  52.3860  52.7189

          k = 0.4188-0.2418 0.0394 (  7448 PWs)   bands (ev):

  -102.7876-101.7823 -61.7123 -61.6919 -61.6899 -60.6453 -60.6425 -60.6152
    -8.2186  -8.1421  -7.4609  -7.3498   0.5035   1.0371   1.6125   1.7680
     2.1888   2.4829   2.9880   3.1552   3.3268   3.3966   3.4281   3.7821
     4.0509   4.1193   4.2726   4.3540   4.5184   4.5443   4.9196   5.3236
     5.4622   5.8039   9.2040   9.9927  10.2159  10.4747  10.9991  11.5540
    11.9447  11.9582  12.0449  13.0691  13.2782  13.3932  13.6683  14.2908
    14.6244  14.7356  15.1361  15.3498  15.5277  16.2479  16.2862  16.7453
    16.8653  17.2106  17.5614  17.8361  17.8427  18.3547  18.6683  19.3640
    19.3652  19.5268  19.8580  20.3296  20.5688  20.5716  21.3639  21.5851
    22.4771  22.5122  22.9977  23.6888  24.1498  24.4978  25.2789  25.4370
    25.5691  26.2389  26.2906  26.3055  27.0749  27.1036  28.0731  28.4384
    29.0154  29.2656  30.0339  30.1402  30.6019  30.6022  31.3047  31.4131
    31.6669  31.7050  32.0319  32.3441  32.7007  32.8359  33.0105  33.0936
    33.4536  33.7221  33.7387  34.0563  34.2358  35.2553  35.2675  35.3117
    35.6592  35.7295  36.1125  36.4956  37.1479  37.1770  37.3638  37.5386
    37.9835  38.0049  38.2848  38.7008  38.7668  39.2731  39.2835  39.6774
    39.8211  39.9269  40.1003  40.1387  40.3618  40.3816  40.5887  40.6577
    40.7052  40.8898  41.2531  41.5744  41.6542  41.7273  41.8358  41.9179
    41.9692  42.5932  42.6906  42.7201  42.7859  43.1364  43.3591  43.5952
    43.9477  44.3909  44.5453  44.8017  44.9134  44.9691  45.0865  45.9159
    45.9504  46.0068  46.2258  46.2798  46.5422  46.6442  46.6670  46.8100
    47.2218  47.4099  47.5499  47.5812  47.8077  47.9359  48.3149  48.4974
    48.5694  48.7008  49.2765  49.5410  49.6188  49.7273  49.9953  50.0875
    50.1032  50.5199  50.6021  50.7436  50.8448  50.9401  51.1899  51.3488
    51.3830  51.4951  51.7094  51.8699  51.9722  52.6234  52.6265  52.7055

          k = 0.4786-0.2763 0.0450 (  7449 PWs)   bands (ev):

  -102.7877-101.7824 -61.7126 -61.6936 -61.6907 -60.6463 -60.6439 -60.6161
    -8.1903  -8.1147  -7.4451  -7.3360   0.5378   1.0530   1.5719   1.7677
     2.1198   2.4828   2.8946   3.1392   3.2658   3.3712   3.3843   3.7309
     4.0162   4.0918   4.2496   4.3225   4.5222   4.5500   4.8178   5.3045
     5.3769   5.7832   9.3294   9.9491  10.2314  10.6272  11.0298  11.5439
    11.9872  12.0560  12.1292  13.0455  13.2438  13.2836  13.5512  14.3402
    14.6529  14.7104  14.9702  15.3258  15.4701  16.1952  16.2688  16.9882
    17.0413  17.4235  17.7177  17.9623  18.0681  18.3758  18.5941  19.5091
    19.5929  19.6824  19.8094  20.4327  20.5034  20.7545  21.4792  21.5054
    22.1362  22.7886  23.3041  23.9161  24.0459  24.4314  25.1412  25.5153
    25.7710  26.1456  26.4933  26.4994  27.1873  27.2371  28.0644  28.6526
    28.8364  29.4079  29.6427  29.6600  30.2896  30.5072  30.8203  30.9413
    31.2855  31.5874  31.9726  32.1236  32.6467  32.8080  32.9041  33.1202
    33.1455  33.5508  33.7660  34.1202  34.3496  35.3402  35.3676  35.6514
    35.7149  35.7357  36.0454  36.5935  36.6369  37.0101  37.3104  37.4093
    38.0249  38.0341  38.0584  38.4848  39.0599  39.2306  39.4971  39.5193
    39.8834  39.8834  40.1861  40.1886  40.3459  40.4244  40.5267  40.5560
    40.9121  40.9552  41.0200  41.3365  41.5504  41.6102  41.6502  41.7981
    41.8407  42.8030  42.8563  42.9358  42.9670  43.0632  43.1296  43.5160
    44.1251  44.2864  44.6225  44.6868  44.8823  44.9097  45.2632  45.5973
    45.6469  45.9339  46.0600  46.1239  46.4642  46.7173  46.8965  46.9615
    47.3217  47.3561  47.4135  47.5299  47.6747  47.7687  48.2279  48.5599
    48.5769  48.7587  49.2251  49.6922  49.7227  49.7794  50.0800  50.2574
    50.2764  50.4572  50.5421  50.6469  50.6837  50.9851  51.1027  51.1223
    51.4936  51.8208  51.9054  52.0008  52.1062  52.4118  52.5896  52.6267

          k = 0.5385-0.3109 0.0507 (  7452 PWs)   bands (ev):

  -102.7879-101.7826 -61.7198 -61.6921 -61.6916 -60.6469 -60.6441 -60.6224
    -8.1587  -8.0840  -7.4279  -7.3209   0.5751   1.0663   1.5317   1.7693
     2.0504   2.4846   2.7779   3.1058   3.1236   3.3343   3.4369   3.6802
     3.9770   4.0575   4.2055   4.2884   4.5234   4.5369   4.7363   5.2860
     5.3105   5.7645   9.4391   9.8735  10.1933  10.7738  11.1342  11.5056
    12.0978  12.1560  12.2199  12.9475  13.1143  13.3714  13.4340  14.3890
    14.5004  14.8011  14.8479  15.3167  15.4410  16.1692  16.2704  17.1540
    17.2604  17.6153  17.8636  18.1413  18.3043  18.3626  18.5564  19.5320
    19.6976  19.8715  20.0041  20.4562  20.5628  21.0100  21.3908  21.6491
    21.8119  23.0751  23.6015  23.9474  24.1576  24.3541  24.9643  25.5034
    26.0124  26.1025  26.6979  26.7829  27.3286  27.3564  28.0514  28.2960
    29.0399  29.1709  29.2235  29.7036  29.9152  30.3328  30.4113  30.4855
    30.9321  31.4395  31.5970  32.1811  32.4458  32.7169  32.7213  33.2273
    33.2305  33.4084  33.8046  34.2022  34.4801  35.4084  35.4186  35.7496
    35.7701  35.9248  36.0266  36.1335  36.4940  36.6229  37.2515  37.6296
    37.7286  37.7996  38.1245  38.3768  38.7200  39.2591  39.4266  39.4448
    39.8680  39.9007  40.0626  40.1424  40.3310  40.4348  40.4644  40.7446
    40.8603  40.9553  41.2401  41.3929  41.4270  41.4555  41.6538  41.7881
    41.9517  42.7679  42.8208  42.9833  43.0398  43.1307  43.2966  43.6351
    44.1700  44.2824  44.2875  44.7561  44.8032  44.8085  45.3142  45.3440
    45.4490  45.8645  45.9933  46.0235  46.2728  46.9155  46.9310  47.0018
    47.0913  47.2639  47.3697  47.4443  47.5464  47.9992  48.2065  48.5584
    48.5961  48.9005  49.1899  49.4903  49.7792  49.8185  49.9672  50.3975
    50.4274  50.4457  50.5547  50.5562  50.7975  51.0663  51.1265  51.2166
    51.6775  52.0069  52.1008  52.1215  52.1267  52.1916  52.5210  52.6634

          k = 0.5983-0.3454 0.0563 (  7449 PWs)   bands (ev):

  -102.7877-101.7824 -61.7240 -61.6886 -61.6865 -60.6415 -60.6414 -60.6265
    -8.1240  -8.0503  -7.4094  -7.3047   0.6158   1.0789   1.4897   1.7753
     1.9789   2.4889   2.6464   2.9433   3.1107   3.3166   3.4861   3.6280
     3.9468   4.0418   4.1397   4.2503   4.5225   4.5256   4.6731   5.2571
     5.2725   5.7500   9.5141   9.7768  10.1417  10.9082  11.2794  11.4445
    12.2526  12.2619  12.3154  12.8522  13.0016  13.3234  13.4851  14.3225
    14.4431  14.7416  14.8863  15.3200  15.4464  16.1739  16.2808  17.2198
    17.5350  17.7897  17.9921  18.3294  18.3674  18.5125  18.5904  19.4429
    19.9211  20.0056  20.3302  20.4331  20.7137  21.2235  21.3210  21.5852
    21.7938  23.3648  23.8580  23.8825  24.2722  24.4045  24.7815  25.5167
    25.8938  26.4233  26.8988  27.1011  27.4568  27.4810  27.9083  28.0946
    28.5698  28.6844  29.5131  29.5553  29.6909  29.8460  30.0854  30.3278
    30.7491  31.2294  31.2434  31.9851  32.2410  32.5311  32.8576  33.2909
    33.3392  33.4594  33.8518  34.2982  34.6199  35.4438  35.4668  35.6274
    35.7553  35.7919  35.8302  35.9853  36.3835  36.5243  37.2019  37.3574
    37.5034  37.8495  38.1835  38.3550  38.3871  39.0089  39.2280  39.2580
    39.3827  39.8207  39.8916  39.9401  40.3752  40.5816  40.5857  40.6484
    40.8946  40.9439  41.2784  41.4984  41.6083  41.7642  41.9297  42.0087
    42.1124  42.5093  42.8398  42.8433  43.1144  43.2212  43.5596  43.8478
    43.9111  44.0510  44.3220  44.5959  44.6725  44.9169  45.1491  45.1866
    45.4276  45.7855  45.9155  46.0925  46.0938  46.6960  46.8090  46.9243
    47.0920  47.1250  47.2319  47.4276  47.8491  48.1737  48.1996  48.5628
    48.7326  48.7413  48.9359  49.1801  49.6506  49.9810  50.0802  50.2327
    50.5483  50.5803  50.5847  50.9455  51.0445  51.1824  51.2881  51.4302
    51.6772  51.7432  52.1479  52.1550  52.1769  52.3703  52.5416  52.9464

          k = 0.6581-0.3800 0.0619 (  7455 PWs)   bands (ev):

  -102.7881-101.7828 -61.7250 -61.6963 -61.6902 -60.6490 -60.6457 -60.6274
    -8.0864  -8.0137  -7.3896  -7.2876   0.6579   1.0870   1.4461   1.7796
     1.9013   2.4920   2.5072   2.7886   3.0792   3.2856   3.5279   3.5692
     3.9109   3.9996   4.0662   4.2026   4.4953   4.5064   4.6337   5.2207
     5.2560   5.7364   9.5240   9.6703  10.1182  11.0201  11.3711  11.4373
    12.3398  12.4128  12.4563  12.7688  12.9135  13.2400  13.5909  14.1478
    14.4914  14.6487  14.9665  15.3337  15.4924  16.2093  16.2810  17.2332
    17.8031  17.9662  18.1024  18.2858  18.5761  18.6168  18.7506  19.4722
    20.1536  20.1606  20.4410  20.6536  20.8839  21.0737  21.2713  21.7689
    21.9329  23.6353  23.7764  24.1278  24.1895  24.6344  24.6604  25.5479
    25.7895  26.7276  27.1026  27.4055  27.5034  27.5592  27.6863  28.0917
    28.1318  28.2005  29.1071  29.3616  29.4289  29.5127  30.0284  30.2757
    30.7986  30.9410  30.9527  31.7558  32.0470  32.3475  33.1192  33.1945
    33.4431  33.7222  33.9065  34.3951  34.7583  35.1677  35.4251  35.5041
    35.5144  35.5424  35.8129  35.8954  36.2947  36.7039  36.9397  37.1758
    37.1916  38.0478  38.0590  38.2214  38.3993  38.8301  38.8694  38.9338
    39.1078  39.4519  39.4711  39.7626  39.9665  40.3945  40.6262  40.7899
    41.1523  41.4806  41.4850  41.5546  41.7578  41.8163  42.2743  42.2783
    42.4711  42.5979  42.6669  42.8740  43.1033  43.3605  43.5439  43.6416
    43.8718  43.9098  44.1965  44.5196  44.6207  44.9032  44.9624  45.1531
    45.5320  45.7669  45.8780  45.9664  46.0628  46.3420  46.5668  46.8529
    46.9145  47.0684  47.4561  47.5346  48.0050  48.1156  48.2739  48.3178
    48.3890  48.5716  49.0077  49.2054  49.5868  50.0786  50.0918  50.1876
    50.6173  50.7458  50.8672  51.1878  51.3494  51.4231  51.4577  51.5803
    51.6271  51.7216  52.0377  52.1998  52.2104  52.2668  52.7162  52.9023

          k = 0.7180-0.4145 0.0675 (  7460 PWs)   bands (ev):

  -102.7884-101.7831 -61.7289 -61.6979 -61.6951 -60.6510 -60.6507 -60.6314
    -8.0461  -7.9745  -7.3689  -7.2698   0.7012   1.0862   1.3987   1.7697
     1.8217   2.3631   2.4852   2.6395   3.0650   3.2787   3.5196   3.5586
     3.8682   3.9340   4.0339   4.1531   4.4556   4.4941   4.5979   5.1991
     5.2344   5.7114   9.4570   9.5648  10.1410  11.0980  11.2931  11.5868
    12.4161  12.5090  12.6405  12.7108  12.8599  13.2047  13.6669  14.0015
    14.5494  14.5935  15.0434  15.3571  15.5767  16.2683  16.2758  17.2069
    17.9993  18.1828  18.1970  18.2440  18.5753  18.7689  19.0344  19.6669
    20.2985  20.4132  20.4858  20.7869  20.9460  21.0959  21.2706  22.0671
    22.1112  23.7034  23.8271  24.1065  24.2929  24.6308  24.9205  25.5944
    25.6996  26.9982  27.1739  27.3069  27.4791  27.6221  27.7200  27.7687
    27.8582  28.2442  28.7204  28.8821  29.0406  29.1919  30.1090  30.2166
    30.5800  30.8637  30.9941  31.5886  31.8763  32.1621  33.1133  33.3935
    33.5392  33.9669  34.0008  34.4189  34.8072  34.8442  35.1165  35.2947
    35.3326  35.5604  35.8476  35.9577  35.9805  36.5222  36.8460  36.9848
    37.1617  37.7219  38.0697  38.2035  38.4945  38.5352  38.6025  38.6883
    38.9686  39.0278  39.0903  39.5183  39.5540  40.1777  40.4679  41.0183
    41.3889  41.6116  41.6832  41.7659  42.0181  42.2060  42.2350  42.4317
    42.4908  42.8392  43.0650  43.0899  43.1027  43.2614  43.4786  43.5623
    43.6396  43.7670  44.0499  44.3708  44.6472  44.8091  44.8601  45.1054
    45.4825  45.8496  45.8997  45.9830  46.0309  46.0462  46.3343  46.5942
    47.0500  47.0950  47.4511  47.6553  47.7983  47.9109  48.0772  48.0959
    48.3373  48.5835  49.0822  49.2788  49.7300  50.0405  50.0679  50.3268
    50.7441  50.9293  51.1121  51.2111  51.2613  51.5969  51.6033  51.8013
    51.8605  51.8811  52.0064  52.1423  52.2644  52.3763  52.5901  52.8543

          k = 0.7778-0.4491 0.0732 (  7439 PWs)   bands (ev):

  -102.7871-101.7819 -61.7226 -61.6940 -61.6689 -60.6468 -60.6279 -60.6217
    -8.0034  -7.9329  -7.3473  -7.2513   0.7439   1.0750   1.3670   1.7438
     1.7859   2.2307   2.4974   2.5135   3.0573   3.2817   3.4721   3.5732
     3.8011   3.8988   4.0369   4.1132   4.4585   4.4927   4.6008   5.1963
     5.2269   5.7101   9.3434   9.4575  10.1924  11.1327  11.2202  11.7137
    12.4816  12.5963  12.6667  12.6931  12.9385  13.2599  13.6442  13.9413
    14.5969  14.6167  15.1313  15.3922  15.6937  16.2449  16.3728  17.1543
    18.1195  18.1829  18.2651  18.4205  18.5367  19.0023  19.3593  19.9582
    20.4174  20.5238  20.5511  20.6922  21.1634  21.3191  21.3926  22.1913
    22.4891  23.6411  23.8212  24.0309  24.4551  24.8022  25.1852  25.6242
    25.6526  26.8208  27.1604  27.1631  27.2489  27.4657  27.5159  27.8292
    28.2272  28.2535  28.4101  28.5462  28.6135  28.9297  29.9918  30.1514
    30.1800  31.0026  31.2459  31.4699  31.7748  31.9784  33.0478  33.6024
    33.6077  34.0309  34.1547  34.2676  34.6498  34.7846  35.0277  35.1300
    35.1424  35.6062  35.6396  35.8889  35.9591  36.1765  36.4680  37.1583
    37.1950  37.4242  37.5967  38.1755  38.2502  38.3910  38.4531  38.5780
    38.5988  38.9274  39.0469  39.1529  39.2836  39.9921  40.3927  41.1324
    41.2406  41.7198  41.7812  41.9769  42.3211  42.4188  42.4489  42.5359
    42.5547  42.9517  43.0360  43.0598  43.3038  43.3917  43.5693  43.5884
    43.6442  43.7106  43.9697  44.2811  44.4156  44.6026  44.8656  45.0201
    45.3987  45.5666  45.6877  45.8835  46.0774  46.3270  46.3661  46.5316
    47.0912  47.1498  47.1690  47.2457  47.6565  47.9906  48.0420  48.1226
    48.2295  48.5944  48.9844  49.4034  49.9779  50.0797  50.1279  50.4957
    50.8348  50.8916  51.0387  51.1264  51.3937  51.4299  51.8354  51.9352
    52.0674  52.0969  52.2229  52.3424  52.3733  52.4628  52.5745  52.8515

          k = 0.8376-0.4836 0.0788 (  7429 PWs)   bands (ev):

  -102.7866-101.7814 -61.7230 -61.6913 -61.6552 -60.6441 -60.6278 -60.6079
    -7.9586  -7.8893  -7.3254  -7.2327   0.7824   1.0487   1.3345   1.6605
     1.7961   2.1033   2.4086   2.5049   3.0382   3.2749   3.4196   3.5649
     3.6935   3.8879   4.0276   4.0654   4.4500   4.4781   4.6065   5.2152
     5.2176   5.7059   9.2132   9.3411  10.2479  11.1088  11.1677  11.8048
    12.5339  12.6076  12.6674  12.6703  13.0939  13.4160  13.5115  13.9818
    14.6702  14.6994  15.2284  15.4376  15.8328  16.2143  16.4965  17.0858
    18.1273  18.1412  18.3100  18.4133  18.7870  19.2786  19.6973  20.1660
    20.3621  20.5675  20.6563  20.9686  21.3471  21.4273  21.7240  22.3028
    22.8819  23.5876  23.6782  23.9568  24.6772  25.0125  25.4455  25.5573
    25.7187  26.4683  26.7259  26.7883  27.0553  27.5166  27.7168  27.8624
    27.9512  27.9593  28.1764  28.5330  28.7788  28.8653  29.7737  29.8460
    30.0853  31.0958  31.3762  31.5136  31.7918  31.8327  32.9965  33.5214
    33.5496  33.9232  34.1017  34.4352  34.7077  34.7364  34.8645  34.9040
    35.2723  35.2912  35.6470  35.6559  35.9350  36.0732  36.1436  36.9310
    37.1353  37.1584  37.4512  37.8328  37.8847  37.9517  38.3272  38.3594
    38.5950  38.7738  39.1184  39.1642  39.1872  39.8431  40.3525  40.8220
    41.4297  41.7732  41.7965  42.0219  42.1606  42.4606  42.5062  42.6513
    42.7891  42.9462  43.1451  43.1666  43.1973  43.4990  43.5085  43.6905
    43.8267  43.9429  44.0771  44.3726  44.3867  44.3988  44.5959  44.9743
    45.2402  45.2434  45.4683  45.8487  46.0160  46.1972  46.4813  46.6541
    46.9295  47.0815  47.1347  47.3439  47.4527  47.9843  48.0113  48.1168
    48.3698  48.6001  48.8695  49.5594  50.1462  50.1592  50.1883  50.5233
    50.6499  50.7139  51.0250  51.3120  51.3269  51.5783  51.9704  52.0641
    52.0831  52.1781  52.2139  52.4764  52.5043  52.7031  52.9463  53.0127

          k = 0.8974-0.5181 0.0844 (  7427 PWs)   bands (ev):

  -102.7865-101.7813 -61.7239 -61.6919 -61.6518 -60.6450 -60.6287 -60.6045
    -7.9118  -7.8441  -7.3035  -7.2143   0.8141   1.0040   1.2984   1.5714
     1.8020   1.9915   2.3221   2.5092   3.0160   3.2591   3.3678   3.5187
     3.6019   3.8744   4.0091   4.0137   4.4466   4.4521   4.6077   5.2080
     5.2386   5.7001   9.0782   9.2208  10.2963  11.0426  11.1248  11.8547
    12.5166  12.5722  12.6772  12.7278  13.2542  13.3398  13.6375  14.0679
    14.8014  14.8017  15.3422  15.4958  15.9849  16.1830  16.6452  17.0120
    18.0069  18.1033  18.3418  18.4832  19.0269  19.5894  19.9906  20.0400
    20.5913  20.7633  20.7861  21.2532  21.5250  21.5950  22.0635  22.3984
    23.2840  23.4987  23.5435  23.8883  24.8975  25.1994  25.4685  25.6908
    25.7845  26.1272  26.3293  26.3514  26.7826  27.4708  27.4989  27.6616
    27.7414  27.9260  27.9309  28.6699  29.0832  29.1479  29.3826  29.7580
    30.0202  31.0533  31.2985  31.6005  31.7709  32.0457  32.9598  33.2025
    33.2199  33.9459  34.1641  34.3910  34.5655  34.6635  34.9544  34.9805
    35.0459  35.2679  35.4266  35.6020  35.7550  35.9860  36.1875  36.3665
    36.7959  37.1182  37.2925  37.5120  37.5377  37.5638  38.1259  38.2003
    38.5687  38.5939  39.1373  39.3105  39.4029  39.7689  40.3246  40.4794
    41.5151  41.7630  41.7983  41.9656  42.0130  42.3545  42.4299  42.5870
    42.6735  43.0033  43.0107  43.3522  43.3905  43.4736  43.7741  43.8023
    43.8627  44.0223  44.1150  44.1775  44.4485  44.5301  44.7789  44.8346
    45.0264  45.2048  45.2924  45.7442  45.7548  46.0959  46.1131  46.5888
    47.0344  47.1786  47.2326  47.5229  47.6513  47.7935  47.9685  48.2047
    48.5854  48.5995  48.8532  49.7177  50.0058  50.0531  50.2110  50.2854
    50.6804  50.9535  51.0955  51.1459  51.4102  51.7467  51.8712  52.0573
    52.0970  52.2439  52.3228  52.4194  52.6819  53.1592  53.1902  53.2189

          k = 0.9573-0.5527 0.0901 (  7422 PWs)   bands (ev):

  -102.7862-101.7810 -61.7263 -61.6884 -61.6457 -60.6414 -60.6316 -60.5982
    -7.8637  -7.7975  -7.2820  -7.1963   0.8324   0.9418   1.2585   1.4815
     1.7988   1.9058   2.2580   2.5080   3.0066   3.2507   3.3228   3.4309
     3.5412   3.8664   3.9601   4.0112   4.4387   4.4464   4.6106   5.1951
     5.2687   5.6886   8.9449   9.1021  10.3313  10.9725  11.0698  11.8647
    12.4195  12.5990  12.7112  12.7670  13.1569  13.4307  13.8760  14.1921
    14.9238  14.9689  15.4823  15.5714  16.1453  16.1587  16.8156  16.9388
[...]
    -7.5953  -7.3383  -7.1639  -6.8842   0.5430   0.7009   1.1700   1.3914
     2.1620   2.3914   2.5516   2.8891   3.1383   3.2419   3.3316   3.4724
     3.9958   4.0928   4.3720   4.4309   4.4319   4.5123   5.3092   5.7185
     5.8986   6.1592   8.5498   8.6570  10.2627  10.7033  11.0257  11.5705
    12.2019  12.3187  12.6865  12.8292  13.6594  14.2971  14.4591  15.4391
    15.7524  15.9914  16.3821  16.4742  16.5976  16.7276  17.2065  17.4280
    17.8687  18.0679  18.7051  18.7139  19.6448  20.3755  21.1172  21.8161
    21.8348  21.8633  21.9418  22.7653  22.8445  23.1789  23.2346  23.4233
    23.5871  23.7886  23.9580  24.0979  24.3021  24.3818  24.9203  24.9241
    25.0749  25.2476  25.4353  25.7156  25.9886  26.0903  26.5768  26.8658
    27.5870  28.8173  28.8861  29.0130  29.4606  30.1664  30.2396  30.3571
    30.7335  30.7973  31.2079  31.3072  31.6179  31.8350  31.9486  32.4966
    32.6125  32.9120  33.0626  33.0713  33.3979  33.8748  33.9541  34.0996
    34.4335  34.6617  34.8505  34.9023  35.1877  35.3987  35.4617  36.0449
    36.0603  36.1123  36.5475  36.5926  37.4105  37.7581  38.4666  38.6269
    38.7371  38.8805  39.4131  39.6016  39.8591  39.9909  40.0523  40.2070
    40.4395  40.6434  40.7405  41.2832  41.3689  41.6934  41.7354  41.7957
    42.0532  42.1501  42.5491  42.9059  42.9602  43.0356  43.0436  43.1416
    43.2110  43.4828  43.5044  44.0416  44.4139  44.6242  44.8943  44.9648
    45.0920  45.1830  45.6139  46.0085  46.4491  46.5281  47.3167  47.3400
    47.3479  47.6474  47.6930  48.0212  48.0362  48.2572  48.6326  49.2394
    49.5583  49.5603  49.7614  49.9122  50.0807  50.0891  50.3044  50.5238
    50.6728  50.9577  51.0019  51.1374  51.4385  51.4581  51.5423  52.1718
    52.3536  52.5757  52.9741  53.3629  53.4190  53.5587  53.6600  53.6707

          k = 1.4359-0.8290 0.2364 (  7430 PWs)   bands (ev):

  -101.7478-101.6631 -60.6006 -60.5996 -60.5854 -60.4433 -60.4382 -60.4237
    -7.4620  -7.1999  -7.1394  -6.8603   0.2803   0.4296   1.0618   1.2591
     2.2798   2.5255   2.5413   2.8786   3.0490   3.0557   3.2530   3.2756
     3.9864   4.0638   4.2975   4.3354   4.3587   4.4082   5.4261   5.7051
     5.9503   6.1418   8.3260   8.4303  10.2524  10.5345  10.9477  11.4274
    11.8148  11.9672  12.6388  12.7710  13.8934  14.7491  14.7656  15.6657
    16.0763  16.5487  16.8276  16.8493  16.8896  17.2703  17.4468  17.6245
    18.0700  18.4261  18.9843  19.3243  20.0128  20.4176  21.3357  21.6909
    21.8919  21.9375  22.1460  22.3998  22.4069  22.9221  23.0045  23.4666
    23.7151  23.8992  23.9028  24.0663  24.4854  24.5683  24.5692  24.8381
    24.8551  25.0058  25.3535  26.2294  26.6051  26.7158  27.5483  27.6701
    27.9500  28.5812  28.9229  29.2800  29.2926  29.5257  29.7443  30.3381
    30.3928  30.6360  30.6767  30.7403  31.0414  31.1559  31.5856  31.8640
    32.0723  32.0896  32.8276  33.0506  33.2583  33.2607  33.3557  33.4438
    33.8038  33.9996  34.9733  35.2152  35.6507  36.0316  36.0649  36.0849
    36.5998  36.6745  36.8851  37.1603  37.3269  37.5977  37.8266  37.8975
    38.1790  38.8105  39.0671  39.1178  39.3995  39.5467  39.5701  39.9109
    40.0923  40.3818  40.4826  40.9070  41.0078  41.1320  41.3024  41.6456
    41.7642  41.8310  42.1680  42.2834  42.6500  42.7871  42.8374  43.0916
    43.4944  43.5974  43.8803  44.2192  44.3202  44.4336  44.4603  44.7585
    44.9088  45.5177  45.8536  45.9524  46.2519  46.7098  46.7325  46.8939
    47.4886  47.6280  47.6442  47.8665  48.5694  48.5904  49.3306  49.4977
    49.5219  49.8047  49.9689  50.0539  50.1578  50.3212  50.5933  50.6491
    50.8976  51.0328  51.2525  51.3686  51.5469  51.6551  52.0234  52.1463
    52.2944  53.0148  53.2460  53.2917  53.3328  54.0132  54.0770  54.1101

          k = 1.6154-0.9327 0.2026 (  7424 PWs)   bands (ev):

  -101.7475-101.6628 -60.5944 -60.5938 -60.5885 -60.4382 -60.4319 -60.4271
    -7.3587  -7.1377  -7.0923  -6.8598   0.1033   0.2459   0.9838   1.1715
     2.4364   2.5452   2.6698   2.8773   2.9051   3.0090   3.1072   3.2080
     3.9887   4.0643   4.2727   4.2982   4.3137   4.3381   5.5165   5.7125
     5.9794   6.1481   8.1904   8.2963  10.2581  10.4240  10.9749  11.3035
    11.5424  11.7115  12.6083  12.7145  14.1794  14.7287  15.1467  15.6875
    16.1006  16.5144  16.8645  16.9726  17.4756  17.8011  18.2619  18.3222
    18.5062  18.7531  19.7886  20.0524  20.2391  20.4851  20.9859  21.0066
    21.2215  21.3730  21.8554  21.9221  21.9300  22.0838  22.6632  22.8723
    23.2896  23.3703  24.1456  24.2108  25.0752  25.1144  25.2084  25.5287
    25.5564  25.8783  26.7911  26.9125  27.1057  27.5204  27.5509  27.5857
    28.1473  28.5136  28.5968  28.9870  29.0060  29.2481  29.3870  29.5064
    30.1453  30.1772  30.1992  30.3106  30.5068  30.8259  30.9461  31.0057
    31.0567  31.6493  32.0083  32.3714  32.4878  33.9170  33.9597  34.2874
    35.0070  35.1422  35.1441  35.4975  35.6325  35.8157  36.0329  36.2844
    36.3785  36.8113  36.8267  36.8604  37.2677  37.4523  37.4996  37.7975
    38.1756  38.2067  38.5009  38.5232  38.7144  38.9115  39.5105  39.9243
    40.0774  40.2181  40.6670  40.8591  40.8955  41.0583  41.2799  41.4990
    41.5371  41.6354  41.9397  42.1311  42.5039  42.6264  42.7902  42.8439
    43.1509  43.5700  43.8427  43.9419  44.2567  44.3180  44.6865  44.7244
    45.1464  45.1867  45.7179  45.9365  45.9408  46.1499  46.8826  47.2320
    47.2987  47.6564  47.9515  48.0004  48.5808  48.9205  49.1672  49.2744
    49.7382  49.7510  49.9741  50.0004  50.1892  50.3633  50.5034  50.6970
    51.2022  51.2977  51.4613  51.4855  51.7706  52.0932  52.1170  52.3619
    52.8678  53.1511  53.3518  53.7105  53.7612  54.1748  54.3882  54.5056

          k = 1.7949-1.0363 0.1689 (  7408 PWs)   bands (ev):

  -101.7466-101.6619 -60.5905 -60.5788 -60.5785 -60.4348 -60.4175 -60.4171
    -7.3154  -7.1439  -7.0469  -6.8670   0.0424   0.1825   0.9552   1.1407
     2.5350   2.5491   2.7209   2.8757   2.8766   2.9955   3.0068   3.1933
     4.0119   4.0900   4.2734   4.2753   4.3069   4.3478   5.5633   5.7192
     5.9959   6.1530   8.1459   8.2531  10.2654  10.3840  11.0927  11.1334
    11.5369  11.5621  12.6004  12.6914  14.4763  14.4916  15.4735  15.4990
    16.2148  16.2319  16.9306  17.0416  17.8894  17.9860  18.7116  18.7633
    18.8075  18.9260  20.2472  20.2965  20.3241  20.4848  20.7044  20.8111
    20.9907  21.0482  21.3472  21.5012  21.7459  21.7750  22.5209  22.5600
    23.1605  23.2255  23.9898  24.0496  25.6683  25.8169  25.9364  26.0494
    26.3919  26.4794  26.8538  26.9325  27.0010  27.0595  27.5672  27.5912
    28.2491  28.4033  28.8466  28.8952  29.0508  29.0993  29.6176  29.6640
    29.6737  29.6822  29.7303  29.8315  30.0927  30.0954  30.6214  30.6664
    31.4475  31.5079  31.6511  31.6665  33.5733  33.6209  34.7424  34.7788
    35.2326  35.2440  35.6345  35.6635  35.7117  35.7741  35.8489  35.9963
    36.0855  36.1752  37.0484  37.0691  37.5392  37.6153  37.6692  37.6933
    37.8813  37.9282  38.0628  38.0858  38.2050  38.2498  40.0811  40.0898
    40.2205  40.2449  40.6651  40.6802  40.9131  41.0167  41.0704  41.1017
    41.7607  41.8970  42.1143  42.1272  42.4547  42.4628  42.5853  42.7094
    43.2119  43.2774  43.7199  43.7458  44.4880  44.5673  44.7977  44.8737
    44.9551  44.9871  45.4542  45.4697  46.0884  46.1153  46.6360  46.7230
    48.0358  48.0657  48.1608  48.1632  48.7124  48.7255  49.2685  49.3413
    49.4860  49.4901  49.8898  49.9264  50.5258  50.5391  50.5488  50.5843
    51.0249  51.0486  51.2069  51.2707  52.1085  52.1316  52.2975  52.3087
    53.1808  53.1853  53.8128  53.8605  54.5229  54.5488  54.5932  54.6698

          k = 1.7758-1.0253 0.2364 (  7417 PWs)   bands (ev):

  -101.7471-101.6624 -60.5986 -60.5841 -60.5824 -60.4422 -60.4227 -60.4206
    -7.3160  -7.1439  -7.0477  -6.8670   0.0423   0.1841   0.9539   1.1426
     2.5220   2.5504   2.7213   2.8675   2.8786   2.9952   3.0109   3.1937
     3.9964   4.0770   4.2672   4.2871   4.2943   4.3358   5.5388   5.7203
     5.9814   6.1569   8.1175   8.2844  10.2399  10.3852  11.0666  11.1653
    11.5188  11.6145  12.5627  12.7326  14.4179  14.5049  15.2170  15.7378
    16.2591  16.2731  16.7906  17.1862  17.8842  17.9780  18.6454  18.7954
    18.8033  18.9378  20.2350  20.2955  20.3617  20.4836  20.5950  20.8570
    20.8922  20.9732  21.3492  21.5122  21.7646  21.9517  22.2425  22.8539
    22.9867  23.4241  23.8746  24.2002  25.6452  25.8497  25.9165  26.0181
    26.3126  26.5824  26.7470  26.9919  27.0366  27.0624  27.2721  27.8261
    28.1745  28.4017  28.8024  29.0033  29.0620  29.1399  29.3689  29.4325
    29.4635  29.5973  29.8752  30.0164  30.1019  30.2353  30.7601  30.8131
    31.2918  31.5562  31.7640  31.7982  33.4077  33.7909  34.3909  34.8465
    35.0438  35.4417  35.6772  35.7243  35.7754  35.8282  35.9009  35.9376
    36.0038  36.3058  36.7302  37.2162  37.3278  37.4514  37.4687  37.5960
    37.7927  37.8562  38.1032  38.4685  38.4938  38.5284  39.8770  39.9689
    40.2245  40.4433  40.6681  40.7625  40.8487  41.0257  41.0704  41.1476
    41.6306  41.7458  41.8705  42.0093  42.5446  42.6324  42.7921  42.9747
    43.1757  43.3313  43.6259  43.9085  44.2924  44.5193  44.5828  44.8799
    44.9999  45.2630  45.3872  45.5263  45.6523  46.4262  46.5929  46.9893
    47.7365  47.7593  48.0716  48.3125  48.8493  48.9075  49.1741  49.3274
    49.4093  49.6839  49.8964  50.0123  50.1177  50.1289  50.7124  50.7568
    51.1268  51.1815  51.2330  51.4981  51.7712  52.1478  52.3966  52.6180
    52.6381  53.5982  53.7683  54.0982  54.3714  54.5357  54.6698  54.6700

          k = 1.7568-1.0143 0.3040 (  7417 PWs)   bands (ev):

  -101.7471-101.6624 -60.5929 -60.5867 -60.5853 -60.4339 -60.4268 -60.4255
    -7.3176  -7.1431  -7.0498  -6.8665   0.0418   0.1888   0.9509   1.1484
     2.5137   2.5474   2.7319   2.8612   2.8775   2.9939   3.0229   3.1947
     3.9936   4.0724   4.2776   4.2801   4.2910   4.3292   5.5373   5.7174
     6.0089   6.1535   8.0675   8.3416  10.1816  10.3793  11.0254  11.2299
    11.5281  11.7057  12.5043  12.8017  14.3239  14.4804  14.9412  15.9664
    16.3746  16.3933  16.6179  17.3699  17.8682  17.9529  18.5451  18.7669
    18.8369  18.9672  20.2295  20.2918  20.4031  20.4296  20.5062  20.6041
    20.8041  20.9736  21.3512  21.5552  21.8524  21.9216  22.3253  22.8193
    23.1705  23.6629  23.7740  24.4143  25.6156  25.8598  25.9088  25.9323
    26.2406  26.6008  26.6963  26.8447  26.9868  27.1730  27.1748  27.9075
    28.1399  28.3573  28.8127  28.9515  28.9820  29.0214  29.1762  29.2968
    29.3665  29.4522  29.6638  30.3143  30.3187  30.3939  31.0467  31.0871
    31.2600  31.5396  31.9467  32.1261  33.2422  33.9462  34.0139  34.4936
    35.1541  35.4043  35.6312  35.7145  35.8302  35.8404  35.9844  36.0871
    36.2003  36.3440  36.4772  36.9602  37.0384  37.0778  37.2164  37.5275
    37.8692  37.8719  38.3679  38.7290  38.9939  39.0529  39.6568  39.7644
    40.1623  40.5941  40.6038  40.7811  40.8285  41.0322  41.0386  41.3157
    41.3358  41.4366  41.8531  41.9943  42.5492  42.6994  43.0784  43.2733
    43.3091  43.5929  43.6597  43.9530  44.1271  44.2794  44.4335  44.8601
    44.9517  45.0911  45.3804  45.5734  45.8789  46.2315  46.9162  47.3439
    47.3517  47.4136  47.8452  48.2107  48.9849  49.0846  49.1510  49.2305
    49.3386  49.5270  49.9451  49.9767  50.1861  50.2865  50.5124  50.5139
    50.9199  51.6110  51.6406  51.6972  51.7563  51.9543  52.3625  52.4168
    53.1384  53.3851  54.2047  54.2933  54.3543  54.3745  54.5016  54.7393

          k = 1.7377-1.0033 0.3715 (  7422 PWs)   bands (ev):

  -101.7474-101.6627 -60.5945 -60.5910 -60.5886 -60.4351 -60.4310 -60.4298
    -7.3203  -7.1422  -7.0531  -6.8657   0.0416   0.1964   0.9469   1.1569
     2.4953   2.5476   2.7432   2.8491   2.8784   2.9928   3.0381   3.1965
     3.9866   4.0678   4.2684   4.2785   4.2839   4.3176   5.5217   5.7155
     6.0237   6.1544   8.0193   8.4029  10.1138  10.3608  10.9803  11.3111
    11.5627  11.8136  12.4511  12.8721  14.2199  14.4267  14.6681  16.1849
    16.4601  16.5196  16.5734  17.5426  17.8379  17.9052  18.4426  18.7301
    18.8491  19.0118  20.1872  20.2036  20.2927  20.3808  20.4486  20.5130
    20.6821  21.0186  21.3490  21.6052  21.6312  22.0091  22.6937  22.6959
    23.4852  23.7054  23.8969  24.6548  25.6158  25.7651  25.8261  25.9581
    26.1852  26.4318  26.4426  26.7942  26.9802  27.2746  27.3176  27.7808
    28.2247  28.3211  28.6723  28.6942  28.7157  28.9647  28.9651  29.1398
    29.3645  29.4242  29.8678  30.3625  30.4579  30.7096  31.0603  31.4614
    31.5602  31.6740  32.0712  32.5316  33.1119  33.6746  33.8637  34.3982
    35.1042  35.3529  35.4297  35.5740  35.7992  35.8464  35.9867  36.0457
    36.2173  36.5928  36.5977  36.6933  36.7444  36.9464  36.9771  37.3364
    37.9372  38.1507  38.6489  38.9286  39.2375  39.5931  39.5974  39.7103
    40.0052  40.1474  40.6072  40.7803  40.8756  40.9649  41.0466  41.2081
    41.2782  41.6434  41.9462  42.0694  42.5345  42.7242  42.9421  43.3933
    43.6024  43.6821  43.8984  43.9612  44.0904  44.2870  44.3716  44.4920
    44.7859  45.1563  45.4079  45.7627  45.9161  46.2819  46.9505  47.0172
    47.1199  47.6944  47.8784  47.9490  48.6433  48.7347  49.0626  49.2409
    49.5030  49.5701  50.0572  50.0782  50.2204  50.2433  50.5802  50.6219
    50.7309  51.2199  51.7026  51.9303  52.0477  52.2660  52.3814  52.5892
    53.1887  53.6355  54.0005  54.0496  54.1174  54.6048  54.7219  54.7682

          k = 1.7187-0.9923 0.4390 (  7426 PWs)   bands (ev):

  -101.7477-101.6629 -60.5985 -60.5937 -60.5894 -60.4418 -60.4329 -60.4282
    -7.3240  -7.1413  -7.0573  -6.8650   0.0429   0.2063   0.9430   1.1667
     2.4680   2.5516   2.7572   2.8364   2.8841   2.9915   3.0539   3.1989
     3.9788   4.0613   4.2511   4.2615   4.2838   4.3326   5.5000   5.7194
     6.0323   6.1645   7.9785   8.4601  10.0514  10.3356  10.9408  11.4015
    11.6080  11.9223  12.4068  12.9375  14.1212  14.3653  14.4097  16.3228
    16.4071  16.6730  16.7629  17.6934  17.7887  17.8297  18.3566  18.6892
    18.8553  19.0735  19.9737  19.9903  20.2583  20.2801  20.4004  20.5278
    20.7351  21.0411  21.3383  21.3434  21.7381  22.1243  22.6123  23.0858
    23.6589  23.8002  24.1061  24.9031  25.6431  25.6665  25.7075  25.9803
    26.0471  26.1269  26.2636  26.7980  26.9817  27.4340  27.4714  27.6235
    28.1473  28.2527  28.4072  28.4983  28.5920  28.8068  28.8718  28.9346
    29.3987  29.5292  30.2225  30.3900  30.4488  31.0314  31.0416  31.8414
    31.9409  31.9415  32.1336  32.8827  33.1003  33.4345  33.5675  34.5388
    34.9364  35.0628  35.3161  35.4121  35.5034  35.8496  35.9811  36.0427
    36.1205  36.4364  36.4377  36.6775  36.7570  36.9255  37.0708  37.5420
    37.9822  38.3843  38.9096  39.0072  39.1184  39.5331  39.6596  39.8292
    39.9659  40.1320  40.3729  40.8734  40.9589  40.9843  41.0513  41.1832
    41.2660  41.8569  42.0830  42.2764  42.5222  42.7421  42.7455  43.4560
    43.5162  43.6420  43.7033  43.7896  44.1096  44.4806  44.5174  44.6458
    44.9038  45.2073  45.4576  45.7682  45.7971  46.5407  46.5787  46.7911
    47.2480  47.6452  47.6944  48.1826  48.2041  48.2789  49.1337  49.2688
    49.4132  49.8354  49.8613  49.9316  50.3010  50.3168  50.5016  50.7733
    51.0369  51.0972  51.4587  52.1071  52.2076  52.4133  52.7991  52.9303
    53.0053  53.6039  53.8228  53.8978  54.0610  54.4996  54.6466  54.7479

          k = 1.6996-0.9813 0.5066 (  7429 PWs)   bands (ev):

  -101.7478-101.6631 -60.6000 -60.5955 -60.5909 -60.4428 -60.4361 -60.4296
    -7.3286  -7.1405  -7.0622  -6.8640   0.0452   0.2176   0.9406   1.1764
     2.4399   2.5505   2.7742   2.8295   2.8845   2.9905   3.0709   3.2017
     3.9670   4.0571   4.2443   4.2765   4.2843   4.3282   5.4778   5.7159
     6.0511   6.1636   7.9469   8.5092  10.0027  10.3133  10.9038  11.4960
    11.6527  12.0188  12.3730  12.9927  14.0215  14.1984  14.3141  16.2120
    16.6311  16.8110  16.9273  17.7171  17.7272  17.8082  18.2980  18.6461
    18.8863  19.1532  19.7292  19.7643  20.0550  20.2567  20.4735  20.5461
    20.7904  21.0551  21.1473  21.3427  21.8569  22.2270  22.5724  23.4435
    23.6708  24.0918  24.2738  25.1318  25.4957  25.5290  25.7667  25.7737
    25.9676  26.0579  26.0587  26.7449  26.9782  27.4719  27.6080  27.6319
    27.8739  28.1741  28.1747  28.3092  28.5620  28.7099  28.7683  28.9217
    29.4502  29.6922  30.3691  30.4098  30.5272  31.0518  31.3258  32.1109
    32.1780  32.2528  32.3049  32.9363  33.2931  33.3535  33.4592  34.6038
    34.6892  34.6958  35.0920  35.2953  35.4188  35.7071  35.8472  35.9706
    36.1050  36.2329  36.2937  36.5712  36.7317  36.9906  37.5574  37.9479
    38.0123  38.4396  38.9097  38.9215  39.2131  39.3424  39.4195  39.6565
    39.8303  40.6462  40.6933  40.8815  40.9609  41.0562  41.1429  41.1836
    41.2720  41.9179  42.1788  42.4755  42.5168  42.6564  42.7617  43.2566
    43.3291  43.4381  43.6249  43.7351  44.0100  44.5028  44.5704  45.1103
    45.2330  45.3721  45.5181  45.6692  45.8396  46.2752  46.6551  46.7375
    47.3074  47.3390  47.4757  47.6865  48.1154  48.5522  49.2360  49.2818
    49.2954  49.6529  49.7073  50.0296  50.1305  50.2637  50.5397  51.1106
    51.2144  51.3262  51.4090  52.0632  52.2357  52.5720  52.8360  53.1748
    53.2407  53.2818  53.5301  53.7162  54.3645  54.4208  54.4845  54.8740

     Writing all to output data dir ./tmp/NiI2.save/ :
     XML data file, pseudopotentials, collected wavefunctions

     init_run     :      1.17s CPU      1.29s WALL (       1 calls)
     electrons    :    586.36s CPU    591.46s WALL (       1 calls)

     Called by init_run:
     wfcinit      :      0.00s CPU      0.00s WALL (       1 calls)
     wfcinit:atom :      0.01s CPU      0.01s WALL (      49 calls)
     wfcinit:wfcr :     14.96s CPU     15.19s WALL (      49 calls)
     potinit      :      0.13s CPU      0.19s WALL (       1 calls)
     hinit0       :      0.89s CPU      0.95s WALL (       1 calls)

     Called by electrons:
     c_bands      :    586.29s CPU    591.38s WALL (       1 calls)
     v_of_rho     :      0.08s CPU      0.09s WALL (       1 calls)
     v_h          :      0.00s CPU      0.00s WALL (       1 calls)
     v_xc         :      0.08s CPU      0.09s WALL (       1 calls)

     Called by c_bands:
     init_us_2    :      0.01s CPU      0.01s WALL (      49 calls)
     cegterg      :    504.45s CPU    509.19s WALL (     113 calls)

     Called by sum_band:

     Called by *egterg:
     cdiaghg      :    212.95s CPU    214.25s WALL (    2074 calls)
     cegterg:over :     12.55s CPU     13.09s WALL (    2025 calls)
     cegterg:upda :      6.43s CPU      6.45s WALL (    2025 calls)
     cegterg:last :     13.31s CPU     13.33s WALL (    1031 calls)
     cdiaghg:chol :      4.11s CPU      4.47s WALL (    2074 calls)
     cdiaghg:inve :      2.86s CPU      2.97s WALL (    2074 calls)
     cdiaghg:para :     29.07s CPU     29.83s WALL (    4148 calls)
     h_psi        :    272.54s CPU    275.17s WALL (    2187 calls)
     g_psi        :      0.17s CPU      0.17s WALL (    2025 calls)

     Called by h_psi:
     h_psi:calbec :      2.12s CPU      2.18s WALL (    2187 calls)
     vloc_psi     :    268.56s CPU    271.11s WALL (    2187 calls)
                                        0.00s GPU  (    2187 calls)
     add_vuspsi   :      1.66s CPU      1.68s WALL (    2187 calls)

     General routines
     calbec       :      2.12s CPU      2.17s WALL (    2187 calls)
     fft          :      0.87s CPU      0.93s WALL (      19 calls)
     fftw         :    243.81s CPU    246.06s WALL (  419542 calls)
     davcio       :      0.05s CPU      0.09s WALL (      98 calls)

     Parallel routines

     PWSCF        :   9m55.58s CPU  10m10.04s WALL


   This run was terminated on:  11:30:24   9Mar2026            

=------------------------------------------------------------------------------=
   JOB DONE.
=------------------------------------------------------------------------------=
