
     Program PWSCF v.7.5 starts on  9Mar2026 at 11:14:54 
        Git branch: HEAD
        Last git commit: 770a0b2d12928a67048e2f3da8d10d057e52179e
        Last git commit date: Tue Aug 19 09:57:12 2025 +0000
        Last git commit subject: Merge branch 'QE-7.5-RC' into 'master'

     This program is part of the open-source Quantum ESPRESSO suite
     for quantum simulation of materials; please cite
         "P. Giannozzi et al., J. Phys.:Condens. Matter 21 395502 (2009);
         "P. Giannozzi et al., J. Phys.:Condens. Matter 29 465901 (2017);
         "P. Giannozzi et al., J. Chem. Phys. 152 154105 (2020);
          URL http://www.quantum-espresso.org", 
     in publications or presentations arising from this work. More details at
     http://www.quantum-espresso.org/quote

     Parallel version (MPI), running on   256 processors

     MPI processes distributed on     8 nodes
     239673 MiB available memory on the printing compute node when the environment starts

     Waiting for input...
     Reading input from standard input

     Current dimensions of program PWSCF are:
     Max number of different atomic species (ntypx) = 10
     Max number of k-points (npk) =  40000
     Max angular momentum in pseudopotentials (lmaxx) =  4

     Atomic positions and unit cell read from directory:
     ./tmp/NiI2.save/


     K-points division:     npool     =       8
     R & G space division:  proc/nbgrp/npool/nimage =      32
     Subspace diagonalization in iterative solution of the eigenvalue problem:
     one sub-group per band group will be used
     custom distributed-memory algorithm (size of sub-group:  2*  2 procs)


     Parallelization info
     --------------------
     sticks:   dense  smooth     PW     G-vecs:    dense   smooth      PW
     Min          96      96     30                 1853     1853     323
     Max          97      97     31                 1855     1855     325
     Sum        3099    3099    971                59333    59333   10361

     Using Slab Decomposition



     bravais-lattice index     =            5
     lattice parameter (alat)  =      26.8360  a.u.
     unit-cell volume          =    1281.9023 (a.u.)^3
     number of atoms/cell      =            6
     number of atomic types    =            3
     number of electrons       =        64.00
     number of Kohn-Sham states=          200
     kinetic-energy cutoff     =      49.0000  Ry
     charge density cutoff     =     196.0000  Ry
     Exchange-correlation= PBESOL
                           (   1   4  10   8   0   0   0)

     celldm(1)=  26.836001  celldm(2)=   0.000000  celldm(3)=   0.000000
     celldm(4)=   0.961200  celldm(5)=   0.000000  celldm(6)=   0.000000

     crystal axes: (cart. coord. in units of alat)
               a(1) = (   0.139284  -0.080416   0.986982 )  
               a(2) = (   0.000000   0.160831   0.986982 )  
               a(3) = (  -0.139284  -0.080416   0.986982 )  

     reciprocal axes: (cart. coord. in units 2 pi/alat)
               b(1) = (  3.589791 -2.072567  0.337730 )  
               b(2) = (  0.000000  4.145133  0.337730 )  
               b(3) = ( -3.589791 -2.072567  0.337730 )  


     PseudoPot. # 1 for Ni read from file:
     ./Pseudos/Ni_pbesol.upf
     MD5 check sum: 3ec56ad6bf78c9cc1bbec815420e1c7d
     Pseudo is Norm-conserving + core correction, Zval = 18.0
     Generated using ONCVPSP code by D. R. Hamann
     Using radial grid of 1356 points,  6 beta functions with: 
                l(1) =   0
                l(2) =   0
                l(3) =   1
                l(4) =   1
                l(5) =   2
                l(6) =   2

     PseudoPot. # 2 for Ni read from file:
     ./Pseudos/Ni_pbesol.upf
     MD5 check sum: 3ec56ad6bf78c9cc1bbec815420e1c7d
     Pseudo is Norm-conserving + core correction, Zval = 18.0
     Generated using ONCVPSP code by D. R. Hamann
     Using radial grid of 1356 points,  6 beta functions with: 
                l(1) =   0
                l(2) =   0
                l(3) =   1
                l(4) =   1
                l(5) =   2
                l(6) =   2

     PseudoPot. # 3 for I  read from file:
     ./Pseudos/I_pbesol.upf
     MD5 check sum: 80ed5ceb2eb9c553cfb6760a299d9c5b
     Pseudo is Norm-conserving + core correction, Zval =  7.0
     Generated using ONCVPSP code by D. R. Hamann
     Using radial grid of 1182 points,  6 beta functions with: 
                l(1) =   0
                l(2) =   0
                l(3) =   1
                l(4) =   1
                l(5) =   2
                l(6) =   2

     atomic species   valence    mass     pseudopotential
     Ni1              18.00    58.69340     Ni( 1.00)
     Ni2              18.00    58.69340     Ni( 1.00)
     I                 7.00   126.90447     I ( 1.00)

     Starting magnetic structure 
     atomic species   magnetization
     Ni1             0.000
     Ni2             0.000
     I               0.000

     12 Sym. Ops., with inversion, found


                                    s                        frac. trans.

      isym =  1     identity                                     

 cryst.   s( 1) = (     1          0          0      )
                  (     0          1          0      )
                  (     0          0          1      )

 cart.    s( 1) = (  1.0000000  0.0000000  0.0000000 )
                  (  0.0000000  1.0000000  0.0000000 )
                  ( -0.0000000 -0.0000000  1.0000000 )


      isym =  2     180 deg rotation - cart. axis [1,0,0]        

 cryst.   s( 2) = (     0          0         -1      )
                  (     0         -1          0      )
                  (    -1          0          0      )

 cart.    s( 2) = (  1.0000000 -0.0000000 -0.0000000 )
                  (  0.0000000 -1.0000000 -0.0000000 )
                  ( -0.0000000  0.0000000 -1.0000000 )


      isym =  3     120 deg rotation - cryst. axis [0,0,1]       

 cryst.   s( 3) = (     0          1          0      )
                  (     0          0          1      )
                  (     1          0          0      )

 cart.    s( 3) = ( -0.5000000 -0.8660254 -0.0000000 )
                  (  0.8660254 -0.5000000 -0.0000000 )
                  (  0.0000000  0.0000000  1.0000000 )


      isym =  4     120 deg rotation - cryst. axis [0,0,-1]      

 cryst.   s( 4) = (     0          0          1      )
                  (     1          0          0      )
                  (     0          1          0      )

 cart.    s( 4) = ( -0.5000000  0.8660254  0.0000000 )
                  ( -0.8660254 -0.5000000 -0.0000000 )
                  (  0.0000000 -0.0000000  1.0000000 )


      isym =  5     180 deg rotation - cryst. axis [0,1,0]       

 cryst.   s( 5) = (     0         -1          0      )
                  (    -1          0          0      )
                  (     0          0         -1      )

 cart.    s( 5) = ( -0.5000000 -0.8660254 -0.0000000 )
                  ( -0.8660254  0.5000000  0.0000000 )
                  (  0.0000000  0.0000000 -1.0000000 )


      isym =  6     180 deg rotation - cryst. axis [1,1,0]       

 cryst.   s( 6) = (    -1          0          0      )
                  (     0          0         -1      )
                  (     0         -1          0      )

 cart.    s( 6) = ( -0.5000000  0.8660254  0.0000000 )
                  (  0.8660254  0.5000000  0.0000000 )
                  ( -0.0000000 -0.0000000 -1.0000000 )


      isym =  7     inversion                                    

 cryst.   s( 7) = (    -1          0          0      )
                  (     0         -1          0      )
                  (     0          0         -1      )

 cart.    s( 7) = ( -1.0000000 -0.0000000 -0.0000000 )
                  ( -0.0000000 -1.0000000 -0.0000000 )
                  (  0.0000000  0.0000000 -1.0000000 )


      isym =  8     inv. 180 deg rotation - cart. axis [1,0,0]   

 cryst.   s( 8) = (     0          0          1      )
                  (     0          1          0      )
                  (     1          0          0      )

 cart.    s( 8) = ( -1.0000000  0.0000000  0.0000000 )
                  ( -0.0000000  1.0000000  0.0000000 )
                  (  0.0000000 -0.0000000  1.0000000 )


      isym =  9     inv. 120 deg rotation - cryst. axis [0,0,1]  

 cryst.   s( 9) = (     0         -1          0      )
                  (     0          0         -1      )
                  (    -1          0          0      )

 cart.    s( 9) = (  0.5000000  0.8660254  0.0000000 )
                  ( -0.8660254  0.5000000  0.0000000 )
                  ( -0.0000000 -0.0000000 -1.0000000 )


      isym = 10     inv. 120 deg rotation - cryst. axis [0,0,-1] 

 cryst.   s(10) = (     0          0         -1      )
                  (    -1          0          0      )
                  (     0         -1          0      )

 cart.    s(10) = (  0.5000000 -0.8660254 -0.0000000 )
                  (  0.8660254  0.5000000  0.0000000 )
                  ( -0.0000000  0.0000000 -1.0000000 )


      isym = 11     inv. 180 deg rotation - cryst. axis [0,1,0]  

 cryst.   s(11) = (     0          1          0      )
                  (     1          0          0      )
                  (     0          0          1      )

 cart.    s(11) = (  0.5000000  0.8660254  0.0000000 )
                  (  0.8660254 -0.5000000 -0.0000000 )
                  ( -0.0000000 -0.0000000  1.0000000 )


      isym = 12     inv. 180 deg rotation - cryst. axis [1,1,0]  

 cryst.   s(12) = (     1          0          0      )
                  (     0          0          1      )
                  (     0          1          0      )

 cart.    s(12) = (  0.5000000 -0.8660254 -0.0000000 )
                  ( -0.8660254 -0.5000000 -0.0000000 )
                  (  0.0000000  0.0000000  1.0000000 )


     point group D_3d (-3m) 
     there are  6 classes
     the character table:

       E     2C3   3C2'  i     2S6   3s_d 
A_1g   1.00  1.00  1.00  1.00  1.00  1.00
A_2g   1.00  1.00 -1.00  1.00  1.00 -1.00
E_g    2.00 -1.00  0.00  2.00 -1.00  0.00
A_1u   1.00  1.00  1.00 -1.00 -1.00 -1.00
A_2u   1.00  1.00 -1.00 -1.00 -1.00  1.00
E_u    2.00 -1.00  0.00 -2.00  1.00  0.00

     the symmetry operations in each class and the name of the first element:

     E        1
          identity                                               
     2C3      3    4
          120 deg rotation - cryst. axis [0,0,1]                 
     3C2'     2    5    6
          180 deg rotation - cart. axis [1,0,0]                  
     i        7
          inversion                                              
     2S6      9   10
          inv. 120 deg rotation - cryst. axis [0,0,1]            
     3s_d     8   11   12
          inv. 180 deg rotation - cart. axis [1,0,0]             

   Cartesian axes

     site n.     atom                  positions (alat units)
         1        Ni1    tau(   1) = (   0.0000000   0.0000000   0.0000000  )
         2        Ni2    tau(   2) = (   0.1392839   0.0804156   0.4934910  )
         3        I      tau(   3) = (  -0.0000000  -0.0000000   0.3856062  )
         4        I      tau(   4) = (   0.1392839   0.0804156   0.8790972  )
         5        I      tau(   5) = (   0.1392839   0.0804156   0.1078847  )
         6        I      tau(   6) = (   0.1392839  -0.0804156   0.6013757  )

   Crystallographic axes

     site n.     atom                  positions (cryst. coord.)
         1        Ni1    tau(   1) = (  0.0000000  0.0000000  0.0000000  )
         2        Ni2    tau(   2) = (  0.5000000  0.5000000 -0.5000000  )
         3        I      tau(   3) = (  0.1302308  0.1302308  0.1302308  )
         4        I      tau(   4) = (  0.6302308  0.6302308 -0.3697692  )
         5        I      tau(   5) = (  0.3697692  0.3697692 -0.6302308  )
         6        I      tau(   6) = (  0.8697692 -0.1302308 -0.1302308  )

     number of k points=    32  Gaussian smearing, width (Ry)=  0.0100
                       cart. coord. in units 2pi/alat
        k(    1) = (   0.0000000   0.0000000   0.0000000), wk =   0.0046296
        k(    2) = (  -0.5982985  -0.3454278   0.0562883), wk =   0.0277778
        k(    3) = (  -1.1965969  -0.6908556   0.1125766), wk =   0.0277778
        k(    4) = (   1.7948954   1.0362833  -0.1688650), wk =   0.0138889
        k(    5) = (  -0.5982985   0.3454278   0.1125766), wk =   0.0277778
        k(    6) = (  -1.1965969   0.0000000   0.1688650), wk =   0.0555556
        k(    7) = (   1.7948954   1.7271389  -0.1125766), wk =   0.0555556
        k(    8) = (   1.1965969   1.3817111  -0.0562883), wk =   0.0555556
        k(    9) = (   0.5982985   1.0362833   0.0000000), wk =   0.0277778
        k(   10) = (  -1.1965969   0.6908556   0.2251533), wk =   0.0277778
        k(   11) = (   1.7948954   2.4179945  -0.0562883), wk =   0.0555556
        k(   12) = (   1.1965969   2.0725667   0.0000000), wk =   0.0277778
        k(   13) = (   1.7948954  -1.0362833  -0.3377299), wk =   0.0138889
        k(   14) = (   0.0000000  -0.0000000   0.1688650), wk =   0.0092593
        k(   15) = (  -0.5982985  -0.3454278   0.2251533), wk =   0.0277778
        k(   16) = (   2.3931939   1.3817111  -0.0562883), wk =   0.0277778
        k(   17) = (   1.7948954   1.0362833   0.0000000), wk =   0.0277778
        k(   18) = (   1.1965969   0.6908556   0.0562883), wk =   0.0277778
        k(   19) = (  -0.5982985   0.3454278   0.2814416), wk =   0.0277778
        k(   20) = (   2.3931939   2.0725667   0.0000000), wk =   0.0555556
        k(   21) = (   1.7948954   1.7271389   0.0562883), wk =   0.0555556
        k(   22) = (   1.1965969   1.3817111   0.1125766), wk =   0.0555556
        k(   23) = (   2.3931939  -1.3817111  -0.2814416), wk =   0.0277778
        k(   24) = (   1.7948954  -1.7271389  -0.2251533), wk =   0.0555556
        k(   25) = (   1.1965969  -2.0725667  -0.1688650), wk =   0.0277778
        k(   26) = (   1.7948954  -1.0362833  -0.1688650), wk =   0.0277778
        k(   27) = (   0.0000000  -0.0000000   0.3377299), wk =   0.0092593
        k(   28) = (   2.9914923   1.7271389   0.0562883), wk =   0.0277778
        k(   29) = (   2.3931939   1.3817111   0.1125766), wk =   0.0277778
        k(   30) = (   2.9914923  -1.7271389  -0.2251533), wk =   0.0277778
        k(   31) = (   2.3931939  -2.0725667  -0.1688650), wk =   0.0277778
        k(   32) = (   0.0000000   0.0000000  -0.5065949), wk =   0.0046296

                       cryst. coord.
        k(    1) = (   0.0000000   0.0000000   0.0000000), wk =   0.0046296
        k(    2) = (   0.0000000  -0.0000000   0.1666667), wk =   0.0277778
        k(    3) = (   0.0000000  -0.0000000   0.3333333), wk =   0.0277778
        k(    4) = (  -0.0000000   0.0000000  -0.5000000), wk =   0.0138889
        k(    5) = (   0.0000000   0.1666667   0.1666667), wk =   0.0277778
        k(    6) = (  -0.0000000   0.1666667   0.3333333), wk =   0.0555556
        k(    7) = (  -0.0000000   0.1666667  -0.5000000), wk =   0.0555556
        k(    8) = (  -0.0000000   0.1666667  -0.3333333), wk =   0.0555556
        k(    9) = (  -0.0000000   0.1666667  -0.1666667), wk =   0.0277778
        k(   10) = (   0.0000000   0.3333333   0.3333333), wk =   0.0277778
        k(   11) = (  -0.0000000   0.3333333  -0.5000000), wk =   0.0555556
        k(   12) = (  -0.0000000   0.3333333  -0.3333333), wk =   0.0277778
        k(   13) = (   0.0000000  -0.5000000  -0.5000000), wk =   0.0138889
        k(   14) = (   0.1666667   0.1666667   0.1666667), wk =   0.0092593
        k(   15) = (   0.1666667   0.1666667   0.3333333), wk =   0.0277778
        k(   16) = (   0.1666667   0.1666667  -0.5000000), wk =   0.0277778
        k(   17) = (   0.1666667   0.1666667  -0.3333333), wk =   0.0277778
        k(   18) = (   0.1666667   0.1666667  -0.1666667), wk =   0.0277778
        k(   19) = (   0.1666667   0.3333333   0.3333333), wk =   0.0277778
        k(   20) = (   0.1666667   0.3333333  -0.5000000), wk =   0.0555556
        k(   21) = (   0.1666667   0.3333333  -0.3333333), wk =   0.0555556
        k(   22) = (   0.1666667   0.3333333  -0.1666667), wk =   0.0555556
        k(   23) = (   0.1666667  -0.5000000  -0.5000000), wk =   0.0277778
        k(   24) = (   0.1666667  -0.5000000  -0.3333333), wk =   0.0555556
        k(   25) = (   0.1666667  -0.5000000  -0.1666667), wk =   0.0277778
        k(   26) = (   0.1666667  -0.3333333  -0.3333333), wk =   0.0277778
        k(   27) = (   0.3333333   0.3333333   0.3333333), wk =   0.0092593
        k(   28) = (   0.3333333   0.3333333  -0.5000000), wk =   0.0277778
        k(   29) = (   0.3333333   0.3333333  -0.3333333), wk =   0.0277778
        k(   30) = (   0.3333333  -0.5000000  -0.5000000), wk =   0.0277778
        k(   31) = (   0.3333333  -0.5000000  -0.3333333), wk =   0.0277778
        k(   32) = (  -0.5000000  -0.5000000  -0.5000000), wk =   0.0046296

     Dense  grid:    59333 G-vectors     FFT dimensions: ( 120, 120, 120)

     Dynamical RAM for                 wfc:       0.71 MB

     Dynamical RAM for     wfc (w. buffer):       0.71 MB

     Dynamical RAM for           str. fact:       0.08 MB

     Dynamical RAM for           local pot:       0.00 MB

     Dynamical RAM for          nlocal pot:       0.38 MB

     Dynamical RAM for                qrad:       3.37 MB

     Dynamical RAM for          rho,v,vnew:       2.81 MB

     Dynamical RAM for           G-vectors:       0.12 MB

     Dynamical RAM for          h,s,v(r/c):       1.83 MB

     Dynamical RAM for          <psi|beta>:       0.33 MB

     Dynamical RAM for                 psi:       1.42 MB

     Dynamical RAM for                hpsi:       1.42 MB

     Dynamical RAM for      wfcinit/wfcrot:       2.33 MB

     Estimated static dynamical RAM per process >      10.23 MB

     Estimated max dynamical RAM per process >      15.22 MB

     Estimated total dynamical RAM >       3.80 GB

     Check: negative core charge=   -0.000024
     Generating pointlists ...
     new r_m :   0.0799 (alat units)  2.1438 (a.u.) for type    1
     new r_m :   0.0799 (alat units)  2.1438 (a.u.) for type    2
     new r_m :   0.0799 (alat units)  2.1438 (a.u.) for type    3

     The potential is recalculated from file :
     ./tmp/NiI2.save/charge-density

     Starting wfcs are   36 randomized atomic wfcs +  164 random wfcs

     Band Structure Calculation
     Davidson diagonalization with overlap

     Computing kpt #:     1  of     8 on this pool
     total cpu time spent up to now is       27.4 secs

     Computing kpt #:     2  of     8 on this pool
     total cpu time spent up to now is       40.6 secs

     Computing kpt #:     3  of     8 on this pool
     total cpu time spent up to now is       51.7 secs

     Computing kpt #:     4  of     8 on this pool
     total cpu time spent up to now is       63.2 secs

     Computing kpt #:     5  of     8 on this pool
     total cpu time spent up to now is       74.7 secs

     Computing kpt #:     6  of     8 on this pool
     total cpu time spent up to now is       90.9 secs

     Computing kpt #:     7  of     8 on this pool
     total cpu time spent up to now is      103.2 secs

     Computing kpt #:     8  of     8 on this pool
     total cpu time spent up to now is      114.8 secs

     ethr =  1.56E-13,  avg # of iterations = 41.9

     total cpu time spent up to now is      114.8 secs

     End of band structure calculation

 ------ SPIN UP ------------


          k = 0.0000 0.0000 0.0000 (  7403 PWs)   bands (ev):

  -102.7849-101.7796 -61.7029 -61.6534 -61.6534 -60.6054 -60.6054 -60.5998
    -8.3135  -8.2341  -7.5148  -7.3974   0.3875   0.9740   1.7883   1.7883
     2.5050   2.5050   3.0504   3.2526   3.2526   3.5819   4.0362   4.0362
     4.2445   4.3041   4.4280   4.4280   4.4853   4.4853   5.4254   5.4254
     5.9229   5.9229   8.6079   9.6566   9.7967   9.8215  11.5872  11.5872
    11.7287  11.7287  12.1158  12.5823  13.9993  14.0935  14.0935  14.3118
    14.3118  14.3936  15.5905  15.8021  15.8711  16.3648  16.3648  16.4182
    16.4182  16.9178  16.9178  16.9750  17.0622  17.5521  17.5521  19.0984
    19.2925  19.3264  19.3264  20.7514  20.7514  21.0822  21.0822  21.1000
    21.3712  22.7050  22.7050  23.3005  24.5067  25.0205  25.0205  25.1415
    25.1415  25.5188  25.8535  26.2691  26.5726  27.5119  27.5119  27.7103
    27.7103  30.3896  30.9225  30.9225  31.7275  32.3453  32.4133  32.5114
    32.5114  32.6054  33.2750  33.4596  33.7566  33.8995  34.1588  34.1588
    34.2739  34.2739  34.3673  34.5030  34.5030  34.5857  34.5857  35.4552
    35.4552  35.5370  35.5370  36.5123  36.5123  36.5331  36.5331  36.6082
    36.6082  36.7381  36.7381  37.8897  38.3005  39.4870  39.4870  40.0771
    40.3448  40.5345  40.5679  40.6966  40.9120  40.9120  41.0820  41.0820
    41.2003  41.2650  41.3169  41.3169  41.9968  41.9968  42.2027  42.5472
    42.5824  42.8240  42.8240  43.1856  43.1856  43.2962  43.5863  43.6930
    43.6930  44.0046  44.3690  44.5555  44.5555  44.8345  44.9719  45.2127
    45.2127  45.4632  45.9245  45.9245  46.9091  47.3128  47.8070  47.8070
    47.8502  47.8502  48.1421  48.1565  48.4785  48.4785  48.7609  49.0638
    49.2281  49.2281  49.2608  49.2608  49.4524  49.6169  49.6169  49.9770
    50.3457  50.3457  50.4120  50.4120  50.4888  50.4888  50.5301  50.5301
    50.6390  50.6390  51.1406  51.1406  51.3289  51.3289  52.2256  52.2256

     occupation numbers 
     1.0000   1.0000   1.0000   1.0000   1.0000   1.0000   1.0000   1.0000
     1.0000   1.0000   1.0000   1.0000   1.0000   1.0000   1.0000   1.0000
     1.0000   1.0000   1.0000   1.0000   1.0000   1.0000   1.0000   1.0000
     1.0000   1.0000   1.0000   1.0000   1.0000   1.0000   0.4789   0.4789
     0.0000   0.0000   0.0000   0.0000   0.0000   0.0000   0.0000   0.0000
     0.0000   0.0000   0.0000   0.0000   0.0000   0.0000   0.0000   0.0000
     0.0000   0.0000   0.0000   0.0000   0.0000   0.0000   0.0000   0.0000
     0.0000   0.0000   0.0000   0.0000   0.0000   0.0000   0.0000   0.0000
     0.0000   0.0000   0.0000   0.0000   0.0000   0.0000   0.0000   0.0000
     0.0000   0.0000   0.0000   0.0000   0.0000   0.0000   0.0000   0.0000
     0.0000   0.0000   0.0000   0.0000   0.0000   0.0000   0.0000   0.0000
     0.0000   0.0000   0.0000   0.0000   0.0000   0.0000   0.0000   0.0000
     0.0000   0.0000   0.0000   0.0000   0.0000   0.0000   0.0000   0.0000
     0.0000   0.0000   0.0000   0.0000   0.0000   0.0000   0.0000   0.0000
     0.0000   0.0000   0.0000   0.0000   0.0000   0.0000   0.0000   0.0000
     0.0000   0.0000   0.0000   0.0000   0.0000   0.0000   0.0000   0.0000
     0.0000   0.0000   0.0000   0.0000   0.0000   0.0000   0.0000   0.0000
     0.0000   0.0000   0.0000   0.0000   0.0000   0.0000   0.0000   0.0000
     0.0000   0.0000   0.0000   0.0000   0.0000   0.0000   0.0000   0.0000
     0.0000   0.0000   0.0000   0.0000   0.0000   0.0000   0.0000   0.0000
     0.0000   0.0000   0.0000   0.0000   0.0000   0.0000   0.0000   0.0000
     0.0000   0.0000   0.0000   0.0000   0.0000   0.0000   0.0000   0.0000
     0.0000   0.0000   0.0000   0.0000   0.0000   0.0000   0.0000   0.0000
     0.0000   0.0000   0.0000   0.0000   0.0000   0.0000   0.0000   0.0000
     0.0000   0.0000   0.0000   0.0000   0.0000   0.0000   0.0000   0.0000

          k =-0.5983-0.3454 0.0563 (  7449 PWs)   bands (ev):

  -102.7877-101.7824 -61.7240 -61.6886 -61.6865 -60.6415 -60.6414 -60.6265
    -8.1240  -8.0503  -7.4094  -7.3047   0.6158   1.0789   1.4897   1.7753
     1.9789   2.4889   2.6464   2.9433   3.1107   3.3166   3.4861   3.6280
     3.9468   4.0418   4.1397   4.2503   4.5225   4.5256   4.6731   5.2571
     5.2725   5.7500   9.5141   9.7768  10.1417  10.9082  11.2794  11.4445
    12.2526  12.2619  12.3154  12.8522  13.0016  13.3234  13.4851  14.3225
    14.4431  14.7416  14.8863  15.3200  15.4464  16.1739  16.2808  17.2198
    17.5350  17.7897  17.9921  18.3294  18.3674  18.5125  18.5904  19.4429
    19.9211  20.0056  20.3302  20.4331  20.7137  21.2235  21.3210  21.5852
    21.7938  23.3648  23.8580  23.8825  24.2722  24.4045  24.7815  25.5167
    25.8938  26.4233  26.8988  27.1011  27.4568  27.4810  27.9083  28.0946
    28.5698  28.6844  29.5131  29.5553  29.6909  29.8460  30.0854  30.3278
    30.7491  31.2294  31.2434  31.9851  32.2410  32.5311  32.8576  33.2909
    33.3392  33.4594  33.8518  34.2982  34.6199  35.4438  35.4668  35.6274
    35.7553  35.7919  35.8302  35.9853  36.3835  36.5243  37.2019  37.3574
    37.5034  37.8495  38.1835  38.3550  38.3871  39.0089  39.2280  39.2580
    39.3827  39.8207  39.8916  39.9401  40.3752  40.5816  40.5857  40.6484
    40.8946  40.9439  41.2784  41.4984  41.6083  41.7642  41.9297  42.0087
    42.1124  42.5093  42.8398  42.8433  43.1144  43.2212  43.5596  43.8478
    43.9111  44.0510  44.3220  44.5959  44.6725  44.9169  45.1491  45.1866
    45.4276  45.7855  45.9155  46.0925  46.0938  46.6960  46.8090  46.9243
    47.0920  47.1250  47.2319  47.4276  47.8491  48.1737  48.1996  48.5628
    48.7326  48.7413  48.9359  49.1801  49.6506  49.9810  50.0802  50.2327
    50.5483  50.5803  50.5847  50.9455  51.0445  51.1824  51.2881  51.4302
    51.6772  51.7432  52.1479  52.1550  52.1769  52.3703  52.5416  52.9464

     occupation numbers 
     1.0000   1.0000   1.0000   1.0000   1.0000   1.0000   1.0000   1.0000
     1.0000   1.0000   1.0000   1.0000   1.0000   1.0000   1.0000   1.0000
     1.0000   1.0000   1.0000   1.0000   1.0000   1.0000   1.0000   1.0000
     1.0000   1.0000   1.0000   1.0000   1.0000   1.0000   1.0000   0.9551
     0.9377   0.0003   0.0000   0.0000   0.0000   0.0000   0.0000   0.0000
     0.0000   0.0000   0.0000   0.0000   0.0000   0.0000   0.0000   0.0000
     0.0000   0.0000   0.0000   0.0000   0.0000   0.0000   0.0000   0.0000
     0.0000   0.0000   0.0000   0.0000   0.0000   0.0000   0.0000   0.0000
     0.0000   0.0000   0.0000   0.0000   0.0000   0.0000   0.0000   0.0000
     0.0000   0.0000   0.0000   0.0000   0.0000   0.0000   0.0000   0.0000
     0.0000   0.0000   0.0000   0.0000   0.0000   0.0000   0.0000   0.0000
     0.0000   0.0000   0.0000   0.0000   0.0000   0.0000   0.0000   0.0000
     0.0000   0.0000   0.0000   0.0000   0.0000   0.0000   0.0000   0.0000
     0.0000   0.0000   0.0000   0.0000   0.0000   0.0000   0.0000   0.0000
     0.0000   0.0000   0.0000   0.0000   0.0000   0.0000   0.0000   0.0000
     0.0000   0.0000   0.0000   0.0000   0.0000   0.0000   0.0000   0.0000
     0.0000   0.0000   0.0000   0.0000   0.0000   0.0000   0.0000   0.0000
     0.0000   0.0000   0.0000   0.0000   0.0000   0.0000   0.0000   0.0000
     0.0000   0.0000   0.0000   0.0000   0.0000   0.0000   0.0000   0.0000
     0.0000   0.0000   0.0000   0.0000   0.0000   0.0000   0.0000   0.0000
     0.0000   0.0000   0.0000   0.0000   0.0000   0.0000   0.0000   0.0000
     0.0000   0.0000   0.0000   0.0000   0.0000   0.0000   0.0000   0.0000
     0.0000   0.0000   0.0000   0.0000   0.0000   0.0000   0.0000   0.0000
     0.0000   0.0000   0.0000   0.0000   0.0000   0.0000   0.0000   0.0000
     0.0000   0.0000   0.0000   0.0000   0.0000   0.0000   0.0000   0.0000

          k =-1.1966-0.6909 0.1126 (  7415 PWs)   bands (ev):

  -102.7859-101.7807 -61.7333 -61.6839 -61.6366 -60.6393 -60.6369 -60.5890
    -7.6647  -7.6056  -7.2055  -7.1347   0.5648   0.6729   1.1076   1.2125
     1.7913   1.8099   2.1893   2.5180   2.9729   3.0270   3.1605   3.2287
     3.2883   3.7708   3.7999   3.9795   4.3729   4.4512   4.6707   5.1660
     5.3741   5.6754   8.4686   8.6725  10.3510  10.6891  10.8259  11.6728
    12.0396  12.4040  12.6119  12.7779  13.0497  14.2153  14.6675  14.9539
    15.5767  15.5941  16.1530  16.2638  16.2808  16.7435  16.8248  17.2879
    17.6461  18.0805  18.3444  18.5421  19.3180  20.1205  21.2078  21.5439
    21.5574  21.5831  22.4385  22.4499  22.5670  22.6416  22.7681  22.9862
    23.5116  23.6784  23.7961  23.9430  24.2135  24.4765  24.8652  24.9358
    25.1225  25.4518  25.4981  25.5688  25.9633  26.2851  26.3490  27.3794
    27.4341  28.2566  28.7408  28.7602  29.3601  29.6663  29.8711  30.5781
    30.5918  30.9315  30.9397  30.9587  31.3821  31.6414  31.9870  32.3825
    32.8740  33.1931  33.2042  33.3462  33.6480  33.9933  34.1660  34.2307
    34.3771  34.7090  34.7492  35.1206  35.3546  35.4261  35.8508  35.9021
    36.2421  36.4655  36.5252  36.5552  36.8983  37.3698  38.1184  38.3778
    38.5406  38.5730  38.5752  39.0057  39.2543  39.8766  40.1988  40.5687
    40.6221  40.9115  41.1123  41.2856  41.6502  41.7337  41.7700  42.0717
    42.1671  42.3559  42.5063  42.5848  42.9754  43.0062  43.0937  43.2756
    43.4450  43.6190  43.6602  44.0594  44.2497  44.7652  44.8176  44.9150
    45.0795  45.3511  45.4143  45.4937  46.3287  46.3931  46.4948  47.2238
    47.3029  47.5021  47.8538  47.9871  48.0240  48.2147  48.6210  48.9785
    49.1800  49.1862  49.3757  49.6405  49.6805  49.9003  50.0188  50.3823
    50.4240  50.4292  50.7267  50.8442  50.9633  51.7316  52.0542  52.4433
    52.5837  52.5980  52.8753  52.9785  53.1944  53.3089  53.3399  53.6742

     occupation numbers 
     1.0000   1.0000   1.0000   1.0000   1.0000   1.0000   1.0000   1.0000
     1.0000   1.0000   1.0000   1.0000   1.0000   1.0000   1.0000   1.0000
     1.0000   1.0000   1.0000   1.0000   1.0000   1.0000   1.0000   1.0000
     1.0000   1.0000   1.0000   1.0000   1.0000   1.0000   1.0000   0.9959
     0.6844   0.0040   0.0000   0.0000   0.0000   0.0000   0.0000   0.0000
     0.0000   0.0000   0.0000   0.0000   0.0000   0.0000   0.0000   0.0000
     0.0000   0.0000   0.0000   0.0000   0.0000   0.0000   0.0000   0.0000
     0.0000   0.0000   0.0000   0.0000   0.0000   0.0000   0.0000   0.0000
     0.0000   0.0000   0.0000   0.0000   0.0000   0.0000   0.0000   0.0000
     0.0000   0.0000   0.0000   0.0000   0.0000   0.0000   0.0000   0.0000
     0.0000   0.0000   0.0000   0.0000   0.0000   0.0000   0.0000   0.0000
     0.0000   0.0000   0.0000   0.0000   0.0000   0.0000   0.0000   0.0000
     0.0000   0.0000   0.0000   0.0000   0.0000   0.0000   0.0000   0.0000
     0.0000   0.0000   0.0000   0.0000   0.0000   0.0000   0.0000   0.0000
     0.0000   0.0000   0.0000   0.0000   0.0000   0.0000   0.0000   0.0000
     0.0000   0.0000   0.0000   0.0000   0.0000   0.0000   0.0000   0.0000
     0.0000   0.0000   0.0000   0.0000   0.0000   0.0000   0.0000   0.0000
     0.0000   0.0000   0.0000   0.0000   0.0000   0.0000   0.0000   0.0000
     0.0000   0.0000   0.0000   0.0000   0.0000   0.0000   0.0000   0.0000
     0.0000   0.0000   0.0000   0.0000   0.0000   0.0000   0.0000   0.0000
     0.0000   0.0000   0.0000   0.0000   0.0000   0.0000   0.0000   0.0000
     0.0000   0.0000   0.0000   0.0000   0.0000   0.0000   0.0000   0.0000
     0.0000   0.0000   0.0000   0.0000   0.0000   0.0000   0.0000   0.0000
     0.0000   0.0000   0.0000   0.0000   0.0000   0.0000   0.0000   0.0000
     0.0000   0.0000   0.0000   0.0000   0.0000   0.0000   0.0000   0.0000

          k = 1.7949 1.0363-0.1689 (  7408 PWs)   bands (ev):

  -102.7857-101.7804 -61.7254 -61.6624 -61.6623 -60.6313 -60.6153 -60.6150
    -7.3233  -7.2926  -7.1472  -7.1236  -0.0109   0.0348   0.9431   0.9496
     1.8133   1.9607   2.5053   2.5194   2.7777   2.7985   2.9779   2.9845
     3.2021   3.5070   3.5171   3.9837   4.2501   4.2809   4.8927   5.1506
     5.5277   5.6846   8.0068   8.1329  10.2416  10.2466  10.9777  11.0356
    11.4363  11.4465  12.5395  12.5886  14.3740  14.3882  15.3857  15.4035
    16.1221  16.1260  16.8481  16.8773  17.8294  17.8371  18.6457  18.6462
    18.7638  18.7815  20.1594  20.2087  20.2408  20.2839  20.6456  20.6537
    20.9178  20.9199  21.2950  21.3370  21.6564  21.6689  22.4362  22.4375
    23.0899  23.0956  23.9110  23.9309  25.6125  25.6520  25.8608  25.9029
    26.3531  26.3535  26.7507  26.8024  26.9256  26.9345  27.4614  27.4659
    28.1802  28.2268  28.7840  28.8145  28.9446  28.9698  29.5270  29.5345
    29.5724  29.6030  29.6647  29.6831  29.9773  29.9982  30.5397  30.5522
    31.3668  31.3784  31.5430  31.5585  33.4934  33.5071  34.6745  34.6789
    35.1415  35.1545  35.5455  35.5512  35.6481  35.6542  35.7835  35.8044
    36.0332  36.0396  36.9679  36.9794  37.4945  37.4962  37.5825  37.5913
    37.7905  37.7930  37.9582  37.9674  38.1089  38.1257  39.9977  40.0182
    40.1592  40.1646  40.5535  40.5691  40.8454  40.8967  40.9946  41.0027
    41.7164  41.7185  42.0299  42.0435  42.3642  42.3665  42.5573  42.5736
    43.1477  43.1546  43.6424  43.6481  44.4184  44.4215  44.7017  44.7349
    44.8650  44.8744  45.3517  45.3629  45.9933  45.9949  46.5569  46.5807
    47.9489  47.9545  48.0351  48.0737  48.6215  48.6358  49.1975  49.2210
    49.3776  49.3890  49.8187  49.8247  50.4398  50.4416  50.4587  50.4877
    50.9430  50.9617  51.1247  51.1415  52.0062  52.0112  52.1482  52.2048
    53.0901  53.0947  53.7228  53.7393  54.4278  54.4484  54.5478  54.5673

     occupation numbers 
     1.0000   1.0000   1.0000   1.0000   1.0000   1.0000   1.0000   1.0000
     1.0000   1.0000   1.0000   1.0000   1.0000   1.0000   1.0000   1.0000
     1.0000   1.0000   1.0000   1.0000   1.0000   1.0000   1.0000   1.0000
     1.0000   1.0000   1.0000   1.0000   1.0000   1.0000   1.0000   0.9975
     0.1320   0.0030   0.0000   0.0000   0.0000   0.0000   0.0000   0.0000
     0.0000   0.0000   0.0000   0.0000   0.0000   0.0000   0.0000   0.0000
     0.0000   0.0000   0.0000   0.0000   0.0000   0.0000   0.0000   0.0000
     0.0000   0.0000   0.0000   0.0000   0.0000   0.0000   0.0000   0.0000
     0.0000   0.0000   0.0000   0.0000   0.0000   0.0000   0.0000   0.0000
     0.0000   0.0000   0.0000   0.0000   0.0000   0.0000   0.0000   0.0000
     0.0000   0.0000   0.0000   0.0000   0.0000   0.0000   0.0000   0.0000
     0.0000   0.0000   0.0000   0.0000   0.0000   0.0000   0.0000   0.0000
     0.0000   0.0000   0.0000   0.0000   0.0000   0.0000   0.0000   0.0000
     0.0000   0.0000   0.0000   0.0000   0.0000   0.0000   0.0000   0.0000
     0.0000   0.0000   0.0000   0.0000   0.0000   0.0000   0.0000   0.0000
     0.0000   0.0000   0.0000   0.0000   0.0000   0.0000   0.0000   0.0000
     0.0000   0.0000   0.0000   0.0000   0.0000   0.0000   0.0000   0.0000
     0.0000   0.0000   0.0000   0.0000   0.0000   0.0000   0.0000   0.0000
     0.0000   0.0000   0.0000   0.0000   0.0000   0.0000   0.0000   0.0000
     0.0000   0.0000   0.0000   0.0000   0.0000   0.0000   0.0000   0.0000
     0.0000   0.0000   0.0000   0.0000   0.0000   0.0000   0.0000   0.0000
     0.0000   0.0000   0.0000   0.0000   0.0000   0.0000   0.0000   0.0000
     0.0000   0.0000   0.0000   0.0000   0.0000   0.0000   0.0000   0.0000
     0.0000   0.0000   0.0000   0.0000   0.0000   0.0000   0.0000   0.0000
     0.0000   0.0000   0.0000   0.0000   0.0000   0.0000   0.0000   0.0000

          k =-0.5983 0.3454 0.1126 (  7451 PWs)   bands (ev):

  -102.7879-101.7826 -61.7214 -61.6926 -61.6880 -60.6461 -60.6453 -60.6216
    -8.1225  -8.0522  -7.4067  -7.3069   0.6241   1.0662   1.4918   1.7880
     1.9739   2.4966   2.6422   2.9434   3.0887   3.3276   3.4951   3.6187
     3.9453   4.0493   4.1768   4.2407   4.4928   4.5056   4.6719   5.2351
     5.2774   5.7603   9.5366   9.7734  10.2303  10.8418  11.2707  11.3282
    12.2513  12.3165  12.5206  12.6236  13.0260  13.3086  13.6171  14.0426
    14.5088  14.7448  14.7769  15.3701  15.6404  16.4245  16.5693  17.1258
    17.4660  17.6435  17.8560  18.2329  18.2619  18.3839  18.4373  19.1036
    19.5570  20.1838  20.5855  20.9492  20.9723  21.0201  21.8272  22.3310
    22.4166  22.9292  23.3315  23.3650  23.6323  23.7663  24.0765  25.9043
    26.1808  26.8600  26.9642  27.6127  27.8466  28.1972  28.5560  28.6834
    28.7509  28.8745  28.9913  29.0126  29.2741  29.5017  29.8537  30.0505
    30.3741  30.6214  30.6456  31.6989  31.7509  32.3971  33.5889  33.6312
    33.6440  33.8505  34.2201  35.0563  35.0674  35.0948  35.3574  35.6413
    35.7990  35.8707  35.8923  36.0814  36.2555  37.0462  37.1352  37.2956
    37.5662  37.7496  37.7539  37.9703  38.1458  38.8884  38.9968  39.1765
    39.3840  39.4153  39.6106  39.6496  40.1319  40.2895  40.5821  40.6743
    40.7319  40.8350  41.5234  41.5814  41.6925  41.8526  41.9637  42.1943
    42.6398  42.7620  42.8044  43.3725  43.4722  43.4793  43.6188  44.0816
    44.1052  44.2833  44.3675  44.5539  44.5748  44.7774  45.0702  45.4401
    45.4676  45.5244  45.8204  45.8265  46.1398  46.4413  46.6488  46.9182
    46.9954  47.0149  47.0664  47.7995  47.9128  47.9602  48.0552  48.6301
    48.6451  48.8676  48.9055  49.3353  49.4607  49.4848  49.6093  50.0143
    50.1211  50.4709  50.8062  50.8397  50.9637  51.2271  51.2582  51.5412
    51.6622  51.7515  52.0050  52.1715  52.5542  52.8059  52.9357  53.0364

     occupation numbers 
     1.0000   1.0000   1.0000   1.0000   1.0000   1.0000   1.0000   1.0000
     1.0000   1.0000   1.0000   1.0000   1.0000   1.0000   1.0000   1.0000
     1.0000   1.0000   1.0000   1.0000   1.0000   1.0000   1.0000   1.0000
     1.0000   1.0000   1.0000   1.0000   1.0000   1.0000   1.0000   0.9729
     0.9312   0.0002   0.0000   0.0000   0.0000   0.0000   0.0000   0.0000
     0.0000   0.0000   0.0000   0.0000   0.0000   0.0000   0.0000   0.0000
     0.0000   0.0000   0.0000   0.0000   0.0000   0.0000   0.0000   0.0000
     0.0000   0.0000   0.0000   0.0000   0.0000   0.0000   0.0000   0.0000
     0.0000   0.0000   0.0000   0.0000   0.0000   0.0000   0.0000   0.0000
     0.0000   0.0000   0.0000   0.0000   0.0000   0.0000   0.0000   0.0000
     0.0000   0.0000   0.0000   0.0000   0.0000   0.0000   0.0000   0.0000
     0.0000   0.0000   0.0000   0.0000   0.0000   0.0000   0.0000   0.0000
     0.0000   0.0000   0.0000   0.0000   0.0000   0.0000   0.0000   0.0000
     0.0000   0.0000   0.0000   0.0000   0.0000   0.0000   0.0000   0.0000
     0.0000   0.0000   0.0000   0.0000   0.0000   0.0000   0.0000   0.0000
     0.0000   0.0000   0.0000   0.0000   0.0000   0.0000   0.0000   0.0000
     0.0000   0.0000   0.0000   0.0000   0.0000   0.0000   0.0000   0.0000
     0.0000   0.0000   0.0000   0.0000   0.0000   0.0000   0.0000   0.0000
     0.0000   0.0000   0.0000   0.0000   0.0000   0.0000   0.0000   0.0000
     0.0000   0.0000   0.0000   0.0000   0.0000   0.0000   0.0000   0.0000
     0.0000   0.0000   0.0000   0.0000   0.0000   0.0000   0.0000   0.0000
     0.0000   0.0000   0.0000   0.0000   0.0000   0.0000   0.0000   0.0000
     0.0000   0.0000   0.0000   0.0000   0.0000   0.0000   0.0000   0.0000
     0.0000   0.0000   0.0000   0.0000   0.0000   0.0000   0.0000   0.0000
     0.0000   0.0000   0.0000   0.0000   0.0000   0.0000   0.0000   0.0000

          k =-1.1966 0.0000 0.1689 (  7424 PWs)   bands (ev):

  -102.7864-101.7812 -61.7322 -61.6877 -61.6455 -60.6423 -60.6365 -60.5979
    -7.7944  -7.7367  -7.2465  -7.1734   0.8793   0.9600   1.2299   1.5059
     1.6980   1.9983   2.2641   2.3668   2.3960   2.9315   3.3865   3.4028
     3.5442   3.8025   3.9983   4.1064   4.4742   4.4812   4.6351   4.8025
     5.2563   5.4657   9.4250   9.6353  10.5499  10.9909  11.6600  11.9273
    12.1256  12.2987  12.4813  12.5093  12.8515  13.2561  13.5666  14.2049
    14.4188  14.7797  14.7899  16.0214  16.7102  17.0263  17.4390  17.6255
    18.2166  18.4108  18.4811  19.2293  19.5154  19.5359  19.7935  20.3684
    20.5022  21.0387  21.2683  21.3566  21.5176  22.2516  22.5724  23.2067
    23.3547  23.6089  23.6805  23.9863  24.1022  24.6318  24.9033  24.9635
    25.4787  25.7870  25.8603  26.3998  27.0073  27.2445  27.8740  28.1282
    28.7461  28.9170  29.2237  29.2819  29.4226  29.8608  29.9205  30.3396
    30.3966  30.6083  30.7020  31.0385  31.0724  31.2807  31.3752  31.5304
    31.5796  32.2765  32.4987  33.1307  33.3129  34.6403  34.6970  34.7924
    35.0855  35.3020  35.9007  36.0129  36.2864  36.3167  36.4795  36.4887
    36.8051  37.0023  37.2211  37.2796  37.5032  37.7159  38.0007  38.0860
    38.4744  38.6286  38.9954  39.0099  39.3253  39.3908  39.5236  39.9309
    39.9710  40.2665  40.6061  40.8232  41.5760  41.6470  41.7673  41.9903
    42.0291  42.6654  42.7745  42.9768  43.0210  43.2541  43.3850  43.5440
    43.8930  44.0628  44.7103  44.8733  45.1264  45.1970  45.2224  45.7036
    45.8224  45.8390  45.8823  46.1850  46.2838  46.5407  46.8848  47.3661
    47.4191  47.9599  48.0499  48.0723  48.3877  48.5736  48.8175  49.0547
    49.0746  49.1358  49.2918  49.4447  49.5178  49.6841  49.8805  49.9749
    50.1395  50.5186  50.6324  50.8874  50.9737  51.1339  51.1482  51.3449
    51.6502  51.7430  52.1370  52.3151  52.3885  52.7489  53.0625  53.4348

     occupation numbers 
     1.0000   1.0000   1.0000   1.0000   1.0000   1.0000   1.0000   1.0000
     1.0000   1.0000   1.0000   1.0000   1.0000   1.0000   1.0000   1.0000
     1.0000   1.0000   1.0000   1.0000   1.0000   1.0000   1.0000   1.0000
     1.0000   1.0000   1.0000   1.0000   1.0000   1.0000   1.0000   1.0000
     0.9558   0.3185   0.0000   0.0000   0.0000   0.0000   0.0000   0.0000
     0.0000   0.0000   0.0000   0.0000   0.0000   0.0000   0.0000   0.0000
     0.0000   0.0000   0.0000   0.0000   0.0000   0.0000   0.0000   0.0000
     0.0000   0.0000   0.0000   0.0000   0.0000   0.0000   0.0000   0.0000
     0.0000   0.0000   0.0000   0.0000   0.0000   0.0000   0.0000   0.0000
     0.0000   0.0000   0.0000   0.0000   0.0000   0.0000   0.0000   0.0000
     0.0000   0.0000   0.0000   0.0000   0.0000   0.0000   0.0000   0.0000
     0.0000   0.0000   0.0000   0.0000   0.0000   0.0000   0.0000   0.0000
     0.0000   0.0000   0.0000   0.0000   0.0000   0.0000   0.0000   0.0000
     0.0000   0.0000   0.0000   0.0000   0.0000   0.0000   0.0000   0.0000
     0.0000   0.0000   0.0000   0.0000   0.0000   0.0000   0.0000   0.0000
     0.0000   0.0000   0.0000   0.0000   0.0000   0.0000   0.0000   0.0000
     0.0000   0.0000   0.0000   0.0000   0.0000   0.0000   0.0000   0.0000
     0.0000   0.0000   0.0000   0.0000   0.0000   0.0000   0.0000   0.0000
     0.0000   0.0000   0.0000   0.0000   0.0000   0.0000   0.0000   0.0000
     0.0000   0.0000   0.0000   0.0000   0.0000   0.0000   0.0000   0.0000
     0.0000   0.0000   0.0000   0.0000   0.0000   0.0000   0.0000   0.0000
     0.0000   0.0000   0.0000   0.0000   0.0000   0.0000   0.0000   0.0000
     0.0000   0.0000   0.0000   0.0000   0.0000   0.0000   0.0000   0.0000
     0.0000   0.0000   0.0000   0.0000   0.0000   0.0000   0.0000   0.0000
     0.0000   0.0000   0.0000   0.0000   0.0000   0.0000   0.0000   0.0000

          k = 1.7949 1.7271-0.1126 (  7411 PWs)   bands (ev):

  -102.7857-101.7805 -61.7210 -61.6679 -61.6629 -60.6271 -60.6206 -60.6155
    -7.3665  -7.3233  -7.1248  -7.0803   0.3095   0.3670   1.0462   1.1109
     1.7379   1.9806   2.0070   2.0946   2.4369   2.4868   2.7107   2.9408
     3.4547   3.5057   3.7680   4.1900   4.2372   4.4026   4.5842   4.8528
     5.2297   5.5503   8.7951   8.9215  10.5331  11.0317  11.6185  11.6865
    11.8030  11.9055  12.3458  13.0346  13.7233  13.8585  14.2853  14.5143
    14.8291  15.6994  16.0104  16.2746  16.9939  17.5056  18.2370  18.6715
    19.2688  19.4081  19.5336  19.6181  19.9745  20.1841  20.5550  20.9578
    21.1326  21.3864  21.5101  21.8447  22.4136  22.4488  22.7900  23.2973
    23.9018  24.3727  24.3893  24.8302  25.1469  25.2865  25.5518  25.7981
    26.0098  26.1219  26.2005  26.3344  26.4351  26.9172  27.1950  27.6359
    28.0300  28.1135  28.2155  28.5899  28.9811  29.9594  30.0671  30.1789
    30.3080  30.3641  30.5184  30.7038  30.8938  31.2940  31.3177  31.4189
    31.5415  31.8132  31.8939  32.1188  32.3998  32.5097  32.9085  33.3870
    34.0625  34.2837  34.3215  34.3797  34.5903  34.8251  35.1100  35.4557
    35.5197  35.7930  36.3606  36.3854  36.4713  36.7067  36.8504  37.4761
    37.6651  37.7044  38.1140  38.1746  38.6905  38.8789  39.1240  39.3248
    39.4305  39.8183  40.0136  40.0339  40.5252  40.9382  41.0248  41.3868
    41.5396  41.5704  41.7048  42.2260  42.7695  42.9620  43.4869  43.8538
    43.8600  44.0533  44.3583  44.4381  44.5654  45.0290  45.0734  45.9264
    45.9367  46.1136  46.2837  46.7924  46.8638  46.9938  47.0068  47.5039
    47.5792  47.8491  48.0148  48.2092  48.3397  48.5216  49.0889  49.1022
    49.3112  49.4924  49.7979  49.8608  49.8885  50.6018  50.6488  50.8745
    50.9968  51.3156  51.5708  51.6546  52.0357  52.2105  52.5466  52.8305
    52.9035  53.0962  53.3527  53.7846  53.9054  54.1496  54.4975  54.5293

     occupation numbers 
     1.0000   1.0000   1.0000   1.0000   1.0000   1.0000   1.0000   1.0000
     1.0000   1.0000   1.0000   1.0000   1.0000   1.0000   1.0000   1.0000
     1.0000   1.0000   1.0000   1.0000   1.0000   1.0000   1.0000   1.0000
     1.0000   1.0000   1.0000   1.0000   1.0000   1.0000   1.0000   1.0000
     0.9762   0.0883   0.0000   0.0000   0.0000   0.0000   0.0000   0.0000
     0.0000   0.0000   0.0000   0.0000   0.0000   0.0000   0.0000   0.0000
     0.0000   0.0000   0.0000   0.0000   0.0000   0.0000   0.0000   0.0000
     0.0000   0.0000   0.0000   0.0000   0.0000   0.0000   0.0000   0.0000
     0.0000   0.0000   0.0000   0.0000   0.0000   0.0000   0.0000   0.0000
     0.0000   0.0000   0.0000   0.0000   0.0000   0.0000   0.0000   0.0000
     0.0000   0.0000   0.0000   0.0000   0.0000   0.0000   0.0000   0.0000
     0.0000   0.0000   0.0000   0.0000   0.0000   0.0000   0.0000   0.0000
     0.0000   0.0000   0.0000   0.0000   0.0000   0.0000   0.0000   0.0000
     0.0000   0.0000   0.0000   0.0000   0.0000   0.0000   0.0000   0.0000
     0.0000   0.0000   0.0000   0.0000   0.0000   0.0000   0.0000   0.0000
     0.0000   0.0000   0.0000   0.0000   0.0000   0.0000   0.0000   0.0000
     0.0000   0.0000   0.0000   0.0000   0.0000   0.0000   0.0000   0.0000
     0.0000   0.0000   0.0000   0.0000   0.0000   0.0000   0.0000   0.0000
     0.0000   0.0000   0.0000   0.0000   0.0000   0.0000   0.0000   0.0000
     0.0000   0.0000   0.0000   0.0000   0.0000   0.0000   0.0000   0.0000
     0.0000   0.0000   0.0000   0.0000   0.0000   0.0000   0.0000   0.0000
     0.0000   0.0000   0.0000   0.0000   0.0000   0.0000   0.0000   0.0000
     0.0000   0.0000   0.0000   0.0000   0.0000   0.0000   0.0000   0.0000
     0.0000   0.0000   0.0000   0.0000   0.0000   0.0000   0.0000   0.0000
     0.0000   0.0000   0.0000   0.0000   0.0000   0.0000   0.0000   0.0000

          k = 1.1966 1.3817-0.0563 (  7411 PWs)   bands (ev):

  -102.7857-101.7805 -61.7290 -61.6652 -61.6574 -60.6350 -60.6179 -60.6102
    -7.3666  -7.3233  -7.1243  -7.0809   0.2905   0.3872   1.0256   1.1385
     1.7452   1.9333   2.0323   2.0906   2.4408   2.4716   2.7089   2.9619
     3.4541   3.5152   3.7627   4.1841   4.2519   4.4043   4.5656   4.8643
     5.2446   5.5365   8.6767   9.0279  10.4200  11.2189  11.5377  11.7322
    11.7602  12.1123  12.4237  12.8796  13.4978  13.9126  14.0948  14.6062
    14.7741  15.8067  15.9378  16.1594  17.5645  17.7478  18.2861  18.7955
    18.9558  19.2106  19.3226  19.3670  19.9336  20.3451  20.7403  20.8125
    21.0407  21.5379  21.5744  21.6759  22.1714  22.2226  22.6654  23.8960
    24.2088  24.3944  24.6107  25.1705  25.3539  25.4161  25.4846  25.6963
    25.7315  26.0328  26.1962  26.3783  26.4668  26.6990  27.1390  27.2953
    27.6317  27.9599  28.3432  28.3991  29.1930  29.5130  29.6549  30.3131
    30.4729  30.4912  30.7075  31.0321  31.0620  31.2257  31.3498  31.5846
    31.8827  32.0575  32.2013  32.3096  32.4399  32.7341  32.9386  33.3269
    33.3673  33.9013  33.9463  34.2424  34.3667  34.7619  35.0184  35.4011
    35.7508  35.8506  36.0090  36.5114  36.5262  36.6182  37.2387  37.3255
    37.6532  37.9210  37.9775  38.4122  39.0878  39.1177  39.5388  39.7309
    39.8445  39.9257  40.0446  40.1884  40.2859  40.4924  40.5645  40.8274
    40.9267  41.0506  41.7052  41.9658  42.7655  43.0820  43.6221  43.9008
    43.9292  44.1408  44.2502  44.7704  44.8855  45.2818  45.2938  45.8423
    45.9414  46.1389  46.1509  46.3148  46.5181  47.0792  47.6079  47.9100
    48.2494  48.2819  48.2883  48.3275  48.4846  48.5772  48.6053  48.8292
    49.1102  49.1155  49.4791  49.5163  50.0460  50.4333  50.5860  50.9771
    50.9954  51.0556  51.1985  51.3101  51.7728  52.0309  52.6204  52.7364
    53.0665  53.0689  53.3547  53.5434  53.8890  54.2903  54.3941  54.7687

     occupation numbers 
     1.0000   1.0000   1.0000   1.0000   1.0000   1.0000   1.0000   1.0000
     1.0000   1.0000   1.0000   1.0000   1.0000   1.0000   1.0000   1.0000
     1.0000   1.0000   1.0000   1.0000   1.0000   1.0000   1.0000   1.0000
     1.0000   1.0000   1.0000   1.0000   1.0000   1.0000   1.0000   1.0000
     0.9661   0.1135   0.0000   0.0000   0.0000   0.0000   0.0000   0.0000
     0.0000   0.0000   0.0000   0.0000   0.0000   0.0000   0.0000   0.0000
     0.0000   0.0000   0.0000   0.0000   0.0000   0.0000   0.0000   0.0000
     0.0000   0.0000   0.0000   0.0000   0.0000   0.0000   0.0000   0.0000
     0.0000   0.0000   0.0000   0.0000   0.0000   0.0000   0.0000   0.0000
     0.0000   0.0000   0.0000   0.0000   0.0000   0.0000   0.0000   0.0000
     0.0000   0.0000   0.0000   0.0000   0.0000   0.0000   0.0000   0.0000
     0.0000   0.0000   0.0000   0.0000   0.0000   0.0000   0.0000   0.0000
     0.0000   0.0000   0.0000   0.0000   0.0000   0.0000   0.0000   0.0000
     0.0000   0.0000   0.0000   0.0000   0.0000   0.0000   0.0000   0.0000
     0.0000   0.0000   0.0000   0.0000   0.0000   0.0000   0.0000   0.0000
     0.0000   0.0000   0.0000   0.0000   0.0000   0.0000   0.0000   0.0000
     0.0000   0.0000   0.0000   0.0000   0.0000   0.0000   0.0000   0.0000
     0.0000   0.0000   0.0000   0.0000   0.0000   0.0000   0.0000   0.0000
     0.0000   0.0000   0.0000   0.0000   0.0000   0.0000   0.0000   0.0000
     0.0000   0.0000   0.0000   0.0000   0.0000   0.0000   0.0000   0.0000
     0.0000   0.0000   0.0000   0.0000   0.0000   0.0000   0.0000   0.0000
     0.0000   0.0000   0.0000   0.0000   0.0000   0.0000   0.0000   0.0000
     0.0000   0.0000   0.0000   0.0000   0.0000   0.0000   0.0000   0.0000
     0.0000   0.0000   0.0000   0.0000   0.0000   0.0000   0.0000   0.0000
     0.0000   0.0000   0.0000   0.0000   0.0000   0.0000   0.0000   0.0000

          k = 0.5983 1.0363 0.0000 (  7420 PWs)   bands (ev):

  -102.7861-101.7809 -61.7249 -61.6865 -61.6472 -60.6395 -60.6306 -60.5999
    -7.7976  -7.7324  -7.2517  -7.1690   0.8763   0.9695   1.2177   1.5169
     1.6885   1.9877   2.2930   2.3726   2.3916   2.9306   3.3963   3.3988
     3.5415   3.8041   3.9963   4.1156   4.4838   4.4868   4.6256   4.7948
     5.2596   5.4797   9.4126   9.6450  10.5204  11.0285  11.6324  11.9382
    12.1318  12.2374  12.4956  12.6088  12.8948  13.2284  13.5219  14.3146
    14.4525  14.4997  14.8491  15.8828  16.8704  17.0233  17.4342  17.7899
    18.3202  18.5468  18.6170  18.9442  19.2491  19.3876  20.1766  20.3637
    20.6429  20.6724  20.8622  21.3344  21.5468  22.4782  22.9513  23.1378
    23.3905  23.8535  23.9168  23.9436  24.1019  24.3177  24.3493  25.0795
    25.5622  25.7402  26.4030  26.4511  26.7823  27.0664  27.3656  28.1387
    29.0987  29.1277  29.2333  29.4294  29.8977  29.9520  30.0677  30.1494
    30.3343  30.3540  30.6754  30.7971  30.9382  30.9995  31.2400  31.4948
    31.6275  32.2759  32.7789  32.8324  33.2513  34.1359  35.1035  35.3916
    35.5172  35.8219  35.8308  36.0583  36.0959  36.2711  36.6418  36.7002
    36.7685  36.8265  36.9346  36.9794  37.1971  37.7313  37.7761  38.1675
    38.7415  38.8288  38.8626  39.0939  39.2482  39.3288  39.5395  39.5835
    39.7188  40.2221  40.4285  40.9833  41.3199  41.5451  41.8784  41.9482
    42.6031  42.7886  43.0276  43.1113  43.1551  43.2332  43.3061  43.5101
    44.0949  44.0983  44.2288  44.7065  45.0118  45.0719  45.3518  45.7991
    46.0632  46.1330  46.2485  46.2577  46.2699  46.7024  46.7408  46.8424
    47.2496  47.3714  47.4841  48.4140  48.4252  48.8458  48.8879  48.9563
    49.0145  49.0974  49.4529  49.5777  49.6448  49.7616  49.7791  50.1392
    50.1697  50.2816  50.8045  50.9582  51.0444  51.2425  51.5639  51.6596
    51.8007  51.8361  51.8950  51.9186  52.0610  52.6218  52.8328  53.2903

     occupation numbers 
     1.0000   1.0000   1.0000   1.0000   1.0000   1.0000   1.0000   1.0000
     1.0000   1.0000   1.0000   1.0000   1.0000   1.0000   1.0000   1.0000
     1.0000   1.0000   1.0000   1.0000   1.0000   1.0000   1.0000   1.0000
     1.0000   1.0000   1.0000   1.0000   1.0000   1.0000   1.0000   1.0000
     0.9526   0.2686   0.0000   0.0000   0.0000   0.0000   0.0000   0.0000
     0.0000   0.0000   0.0000   0.0000   0.0000   0.0000   0.0000   0.0000
     0.0000   0.0000   0.0000   0.0000   0.0000   0.0000   0.0000   0.0000
     0.0000   0.0000   0.0000   0.0000   0.0000   0.0000   0.0000   0.0000
     0.0000   0.0000   0.0000   0.0000   0.0000   0.0000   0.0000   0.0000
     0.0000   0.0000   0.0000   0.0000   0.0000   0.0000   0.0000   0.0000
     0.0000   0.0000   0.0000   0.0000   0.0000   0.0000   0.0000   0.0000
     0.0000   0.0000   0.0000   0.0000   0.0000   0.0000   0.0000   0.0000
     0.0000   0.0000   0.0000   0.0000   0.0000   0.0000   0.0000   0.0000
     0.0000   0.0000   0.0000   0.0000   0.0000   0.0000   0.0000   0.0000
     0.0000   0.0000   0.0000   0.0000   0.0000   0.0000   0.0000   0.0000
     0.0000   0.0000   0.0000   0.0000   0.0000   0.0000   0.0000   0.0000
     0.0000   0.0000   0.0000   0.0000   0.0000   0.0000   0.0000   0.0000
     0.0000   0.0000   0.0000   0.0000   0.0000   0.0000   0.0000   0.0000
     0.0000   0.0000   0.0000   0.0000   0.0000   0.0000   0.0000   0.0000
     0.0000   0.0000   0.0000   0.0000   0.0000   0.0000   0.0000   0.0000
     0.0000   0.0000   0.0000   0.0000   0.0000   0.0000   0.0000   0.0000
     0.0000   0.0000   0.0000   0.0000   0.0000   0.0000   0.0000   0.0000
     0.0000   0.0000   0.0000   0.0000   0.0000   0.0000   0.0000   0.0000
     0.0000   0.0000   0.0000   0.0000   0.0000   0.0000   0.0000   0.0000
     0.0000   0.0000   0.0000   0.0000   0.0000   0.0000   0.0000   0.0000

          k =-1.1966 0.6909 0.2252 (  7420 PWs)   bands (ev):

  -102.7862-101.7810 -61.7326 -61.6874 -61.6431 -60.6405 -60.6380 -60.5956
    -7.6583  -7.6141  -7.1944  -7.1437   0.5754   0.6638   1.0621   1.2868
     1.7292   1.8087   2.2105   2.5169   2.9741   3.0273   3.1632   3.2268
     3.2822   3.7652   3.7818   3.9848   4.3660   4.4295   4.7333   5.1604
     5.3112   5.6848   8.3663   8.8075  10.2811  10.5888  11.0126  11.7723
    12.0502  12.3506  12.4552  12.8542  12.9768  14.1664  14.4093  15.4535
    15.5710  15.8806  15.9088  16.0393  16.2953  16.9184  17.1773  17.1879
    17.4127  17.5792  17.9748  19.2070  20.1608  20.3653  20.3715  20.9744
    21.3982  21.8378  21.8965  22.0380  22.8353  22.9756  23.0829  23.2633
    23.4616  23.9147  23.9147  24.1026  24.1551  24.2534  24.7013  24.8087
    24.8484  25.2165  25.5770  26.0901  26.1461  26.7509  27.1631  27.3695
    27.5241  27.5877  27.6246  28.5189  29.1103  29.3761  30.2506  30.4674
    30.6474  31.1216  31.1657  31.2048  31.2667  31.6741  32.0436  32.3481
    32.7437  32.8911  33.1536  33.2409  34.0903  34.1813  34.4021  34.4612
    34.5497  34.5739  35.2853  35.5560  35.5798  35.6598  35.6951  35.9994
    36.1189  36.1216  36.2525  36.4262  36.4456  37.0152  38.2781  38.3482
    38.4722  38.6227  38.6283  38.6715  39.3136  39.3222  39.6910  40.0343
    40.1255  41.0241  41.0881  41.5700  41.7414  41.7449  41.8661  42.1151
    42.4620  42.5410  42.5830  42.9412  43.1541  43.2268  43.2701  43.3902
    43.6977  43.9319  44.1087  44.1239  44.4499  44.5852  44.6098  44.8054
    44.9084  45.4255  45.9086  46.3547  46.4523  46.4823  46.8045  47.1090
    47.3543  47.5093  47.5105  47.5311  47.7000  47.7886  47.9130  47.9950
    48.4288  48.6353  49.4801  49.5972  49.7266  49.8855  50.0384  50.0809
    50.3004  50.7258  51.1099  51.1517  51.4729  51.5301  51.8941  51.9373
    52.2403  52.2510  52.5704  52.7828  53.0983  53.6697  53.8241  54.3633

     occupation numbers 
     1.0000   1.0000   1.0000   1.0000   1.0000   1.0000   1.0000   1.0000
     1.0000   1.0000   1.0000   1.0000   1.0000   1.0000   1.0000   1.0000
     1.0000   1.0000   1.0000   1.0000   1.0000   1.0000   1.0000   1.0000
     1.0000   1.0000   1.0000   1.0000   1.0000   1.0000   1.0000   0.9965
     0.8716   0.0030   0.0000   0.0000   0.0000   0.0000   0.0000   0.0000
     0.0000   0.0000   0.0000   0.0000   0.0000   0.0000   0.0000   0.0000
     0.0000   0.0000   0.0000   0.0000   0.0000   0.0000   0.0000   0.0000
     0.0000   0.0000   0.0000   0.0000   0.0000   0.0000   0.0000   0.0000
     0.0000   0.0000   0.0000   0.0000   0.0000   0.0000   0.0000   0.0000
     0.0000   0.0000   0.0000   0.0000   0.0000   0.0000   0.0000   0.0000
     0.0000   0.0000   0.0000   0.0000   0.0000   0.0000   0.0000   0.0000
     0.0000   0.0000   0.0000   0.0000   0.0000   0.0000   0.0000   0.0000
     0.0000   0.0000   0.0000   0.0000   0.0000   0.0000   0.0000   0.0000
     0.0000   0.0000   0.0000   0.0000   0.0000   0.0000   0.0000   0.0000
     0.0000   0.0000   0.0000   0.0000   0.0000   0.0000   0.0000   0.0000
     0.0000   0.0000   0.0000   0.0000   0.0000   0.0000   0.0000   0.0000
     0.0000   0.0000   0.0000   0.0000   0.0000   0.0000   0.0000   0.0000
     0.0000   0.0000   0.0000   0.0000   0.0000   0.0000   0.0000   0.0000
     0.0000   0.0000   0.0000   0.0000   0.0000   0.0000   0.0000   0.0000
     0.0000   0.0000   0.0000   0.0000   0.0000   0.0000   0.0000   0.0000
     0.0000   0.0000   0.0000   0.0000   0.0000   0.0000   0.0000   0.0000
     0.0000   0.0000   0.0000   0.0000   0.0000   0.0000   0.0000   0.0000
     0.0000   0.0000   0.0000   0.0000   0.0000   0.0000   0.0000   0.0000
     0.0000   0.0000   0.0000   0.0000   0.0000   0.0000   0.0000   0.0000
     0.0000   0.0000   0.0000   0.0000   0.0000   0.0000   0.0000   0.0000

          k = 1.7949 2.4180-0.0563 (  7416 PWs)   bands (ev):

  -102.7861-101.7808 -61.7282 -61.6695 -61.6627 -60.6344 -60.6221 -60.6155
    -7.3609  -7.3313  -7.1152  -7.0878   0.2808   0.4000   1.0153   1.1504
     1.7426   1.9037   2.0619   2.0888   2.4244   2.4677   2.7247   2.9587
     3.4461   3.5115   3.7556   4.1864   4.2371   4.3976   4.5624   4.8850
     5.2415   5.5088   8.5720   9.1516  10.5374  11.4001  11.4393  11.5803
    11.8233  11.8959  12.5495  12.5968  13.3401  13.9285  14.4817  14.5597
    15.2237  15.4369  16.0747  16.4647  17.2448  17.5211  18.0462  18.7312
    19.0141  19.1088  19.1679  19.6094  19.9570  20.6885  20.7262  20.9839
    21.1341  21.2692  21.4363  21.4741  22.2931  22.4787  23.0615  23.9194
    24.3833  24.4401  24.5954  24.7572  25.0582  25.2931  25.3430  25.6261
    25.7771  25.8209  26.1454  26.4936  26.6598  26.9036  27.0522  27.0906
    27.5280  28.0688  28.5350  28.5463  29.3112  29.7905  29.8156  29.9115
    30.2754  30.6470  30.7737  30.8708  30.9745  31.0339  31.0949  31.8202
    31.9652  32.0300  32.3359  32.4155  32.6214  32.6877  32.9230  33.0472
    33.6492  33.7437  33.9855  34.3950  34.4043  34.8443  35.1319  35.5359
    35.6968  35.9271  36.2482  36.4737  36.6125  36.7621  36.8744  37.4448
    37.6337  37.7391  38.0494  38.0951  38.3189  38.4665  38.6838  39.1257
    39.3517  39.6744  39.9411  40.2047  40.9362  41.0092  41.3468  41.4276
    41.7842  42.3882  42.4227  42.7216  42.7984  43.0930  43.1252  43.3081
    43.4617  43.7156  44.2666  44.5311  44.9942  45.1804  45.3270  45.4848
    45.7013  45.7724  45.9806  46.5190  46.5849  46.7295  47.3094  47.3638
    47.8655  47.9793  48.1208  48.4223  48.5206  48.8112  48.9353  49.1165
    49.4081  49.6111  49.7668  49.8590  50.1016  50.4479  50.5215  50.5961
    50.7615  51.1979  51.3216  51.4557  51.6359  52.3286  52.3570  52.5389
    52.8098  53.2649  53.6064  53.6339  54.0530  54.2744  54.5507  54.9868

     occupation numbers 
     1.0000   1.0000   1.0000   1.0000   1.0000   1.0000   1.0000   1.0000
     1.0000   1.0000   1.0000   1.0000   1.0000   1.0000   1.0000   1.0000
     1.0000   1.0000   1.0000   1.0000   1.0000   1.0000   1.0000   1.0000
     1.0000   1.0000   1.0000   1.0000   1.0000   1.0000   1.0000   1.0000
     0.9685   0.1787   0.0000   0.0000   0.0000   0.0000   0.0000   0.0000
     0.0000   0.0000   0.0000   0.0000   0.0000   0.0000   0.0000   0.0000
     0.0000   0.0000   0.0000   0.0000   0.0000   0.0000   0.0000   0.0000
     0.0000   0.0000   0.0000   0.0000   0.0000   0.0000   0.0000   0.0000
     0.0000   0.0000   0.0000   0.0000   0.0000   0.0000   0.0000   0.0000
     0.0000   0.0000   0.0000   0.0000   0.0000   0.0000   0.0000   0.0000
     0.0000   0.0000   0.0000   0.0000   0.0000   0.0000   0.0000   0.0000
     0.0000   0.0000   0.0000   0.0000   0.0000   0.0000   0.0000   0.0000
     0.0000   0.0000   0.0000   0.0000   0.0000   0.0000   0.0000   0.0000
     0.0000   0.0000   0.0000   0.0000   0.0000   0.0000   0.0000   0.0000
     0.0000   0.0000   0.0000   0.0000   0.0000   0.0000   0.0000   0.0000
     0.0000   0.0000   0.0000   0.0000   0.0000   0.0000   0.0000   0.0000
     0.0000   0.0000   0.0000   0.0000   0.0000   0.0000   0.0000   0.0000
     0.0000   0.0000   0.0000   0.0000   0.0000   0.0000   0.0000   0.0000
     0.0000   0.0000   0.0000   0.0000   0.0000   0.0000   0.0000   0.0000
     0.0000   0.0000   0.0000   0.0000   0.0000   0.0000   0.0000   0.0000
     0.0000   0.0000   0.0000   0.0000   0.0000   0.0000   0.0000   0.0000
     0.0000   0.0000   0.0000   0.0000   0.0000   0.0000   0.0000   0.0000
     0.0000   0.0000   0.0000   0.0000   0.0000   0.0000   0.0000   0.0000
     0.0000   0.0000   0.0000   0.0000   0.0000   0.0000   0.0000   0.0000
     0.0000   0.0000   0.0000   0.0000   0.0000   0.0000   0.0000   0.0000

          k = 1.1966 2.0726 0.0000 (  7432 PWs)   bands (ev):

  -102.7870-101.7818 -61.7382 -61.6827 -61.6721 -60.6462 -60.6336 -60.6250
    -7.1434  -7.1434  -7.1154  -7.1153   0.4882   0.5246   1.1134   1.1147
     1.2468   1.2508   1.9667   2.0693   2.0904   2.2167   2.6298   2.6697
     3.4012   3.6699   3.6701   4.1445   4.3572   4.3606   4.5482   4.5619
     5.2092   5.2240   8.9877   9.1009  10.7994  10.8952  11.8181  12.0672
    12.7694  12.9217  13.4306  13.5848  13.8153  13.8873  13.9755  14.2094
    14.4055  14.4656  16.0189  16.1621  16.7679  16.8453  17.2116  17.4735
    17.5619  18.5447  19.1304  20.0959  20.7333  21.1465  21.2713  21.3826
    22.0062  22.0633  22.6964  23.2664  23.4675  23.9265  24.0921  24.4519
    24.5880  24.8716  24.8967  24.9629  25.0345  25.1017  25.1896  25.6944
    25.7014  25.9083  26.0169  26.5470  26.8080  27.3776  27.6778  27.7578
    28.3769  28.4149  28.5378  28.6156  28.9220  29.0290  29.5564  29.8141
    30.0289  30.3277  30.3843  30.7130  30.9566  31.1958  31.2198  31.4015
    31.4427  31.4542  31.8063  31.9354  32.4356  32.4848  32.5548  32.7261
    32.9558  33.2656  33.3759  33.7396  33.8271  33.9787  34.0326  34.4899
    34.9225  35.3029  35.3127  35.4435  36.0921  36.2450  36.5195  36.6602
    37.1542  37.4529  37.5346  37.7952  38.0352  38.2680  38.4954  39.0205
    39.0317  39.0583  39.5160  39.5474  39.7800  40.4113  40.5990  41.2641
    41.4169  41.5782  41.5926  42.2302  42.4441  42.9100  43.2403  43.5286
    43.5670  43.9686  44.4692  44.5112  44.5905  45.2052  45.6832  46.0943
    46.1130  46.2042  46.3197  46.8258  47.2760  47.7250  48.1831  48.2802
    48.7791  48.8549  49.1969  49.2673  49.4108  49.4862  49.5129  49.7835
    50.1378  50.2332  50.6909  50.7143  50.9978  51.1382  51.3718  51.4309
    51.5796  51.7382  51.8764  52.2600  52.3955  53.1881  53.2611  53.4880
    53.6005  53.6385  53.7456  53.8152  54.1020  54.2662  54.6880  54.7054

     occupation numbers 
     1.0000   1.0000   1.0000   1.0000   1.0000   1.0000   1.0000   1.0000
     1.0000   1.0000   1.0000   1.0000   1.0000   1.0000   1.0000   1.0000
     1.0000   1.0000   1.0000   1.0000   1.0000   1.0000   1.0000   1.0000
     1.0000   1.0000   1.0000   1.0000   1.0000   1.0000   1.0000   1.0000
     0.9859   0.9793   0.0000   0.0000   0.0000   0.0000   0.0000   0.0000
     0.0000   0.0000   0.0000   0.0000   0.0000   0.0000   0.0000   0.0000
     0.0000   0.0000   0.0000   0.0000   0.0000   0.0000   0.0000   0.0000
     0.0000   0.0000   0.0000   0.0000   0.0000   0.0000   0.0000   0.0000
     0.0000   0.0000   0.0000   0.0000   0.0000   0.0000   0.0000   0.0000
     0.0000   0.0000   0.0000   0.0000   0.0000   0.0000   0.0000   0.0000
     0.0000   0.0000   0.0000   0.0000   0.0000   0.0000   0.0000   0.0000
     0.0000   0.0000   0.0000   0.0000   0.0000   0.0000   0.0000   0.0000
     0.0000   0.0000   0.0000   0.0000   0.0000   0.0000   0.0000   0.0000
     0.0000   0.0000   0.0000   0.0000   0.0000   0.0000   0.0000   0.0000
     0.0000   0.0000   0.0000   0.0000   0.0000   0.0000   0.0000   0.0000
     0.0000   0.0000   0.0000   0.0000   0.0000   0.0000   0.0000   0.0000
     0.0000   0.0000   0.0000   0.0000   0.0000   0.0000   0.0000   0.0000
     0.0000   0.0000   0.0000   0.0000   0.0000   0.0000   0.0000   0.0000
     0.0000   0.0000   0.0000   0.0000   0.0000   0.0000   0.0000   0.0000
     0.0000   0.0000   0.0000   0.0000   0.0000   0.0000   0.0000   0.0000
     0.0000   0.0000   0.0000   0.0000   0.0000   0.0000   0.0000   0.0000
     0.0000   0.0000   0.0000   0.0000   0.0000   0.0000   0.0000   0.0000
     0.0000   0.0000   0.0000   0.0000   0.0000   0.0000   0.0000   0.0000
     0.0000   0.0000   0.0000   0.0000   0.0000   0.0000   0.0000   0.0000
     0.0000   0.0000   0.0000   0.0000   0.0000   0.0000   0.0000   0.0000

          k = 1.7949-1.0363-0.3377 (  7422 PWs)   bands (ev):

  -102.7865-101.7812 -61.7249 -61.6806 -61.6700 -60.6367 -60.6334 -60.6165
    -7.3273  -7.2853  -7.1585  -7.1159  -0.0523   0.0818   0.8706   1.0311
     1.8091   1.8990   2.5209   2.5230   2.6998   2.8913   2.9388   3.0222
     3.1922   3.4563   3.5327   3.9756   4.2336   4.2715   4.8175   5.1350
     5.5890   5.6914   7.7572   8.4223   9.8868  10.1866  10.7196  11.5708
    11.6402  11.9094  12.2472  12.9741  13.6883  13.9292  14.1758  15.9478
    16.8907  16.9142  17.1891  17.4554  17.6647  18.0567  18.1787  18.7422
    19.1632  19.1761  19.3183  19.3720  19.5151  20.1665  20.3146  20.4616
    20.4616  20.9047  21.0542  21.1587  21.4697  22.0601  22.2107  23.3714
    23.8173  24.7613  24.8365  25.0605  25.0754  25.2809  25.7649  25.7893
    25.8714  26.0990  26.2077  26.2147  27.0253  27.0952  27.5015  27.7001
    27.8676  27.9006  27.9915  28.1893  28.4358  28.5380  28.7887  29.0273
    29.1245  29.2363  29.2619  29.4269  30.5019  31.2791  31.4304  32.0224
    32.2062  32.5362  32.7994  33.4473  33.9195  33.9666  34.0069  34.2766
    34.3294  34.3467  34.3491  34.5167  34.9367  34.9974  35.0724  35.7862
    35.8776  35.9717  36.0229  36.1064  37.1264  37.3950  37.9508  38.0357
    38.2880  38.3999  38.5191  38.5813  38.7084  38.8365  39.3602  39.9736
    39.9796  40.2033  40.7889  41.0000  41.0702  41.1148  41.1558  41.1829
    41.4112  41.6999  42.0053  42.0807  42.1136  42.4354  42.6256  42.6397
    43.0780  43.3035  43.7615  43.8073  43.9033  44.4689  44.9759  45.0869
    45.2484  45.4817  45.6486  45.7929  46.0374  46.0828  46.1236  46.5289
    46.6308  46.9968  47.1447  47.8024  47.8479  48.2137  48.4876  49.1713
    49.1957  49.3768  49.4577  49.5200  50.1285  50.3514  50.8679  51.3539
    51.4286  51.5464  51.8980  52.0960  52.1699  52.5361  52.6175  53.0706
    53.1938  53.3360  53.4107  53.5475  53.9380  54.5743  54.6454  54.8840

     occupation numbers 
     1.0000   1.0000   1.0000   1.0000   1.0000   1.0000   1.0000   1.0000
     1.0000   1.0000   1.0000   1.0000   1.0000   1.0000   1.0000   1.0000
     1.0000   1.0000   1.0000   1.0000   1.0000   1.0000   1.0000   1.0000
     1.0000   1.0000   1.0000   1.0000   1.0000   1.0000   1.0000   0.9985
     0.0398   0.0024   0.0000   0.0000   0.0000   0.0000   0.0000   0.0000
     0.0000   0.0000   0.0000   0.0000   0.0000   0.0000   0.0000   0.0000
     0.0000   0.0000   0.0000   0.0000   0.0000   0.0000   0.0000   0.0000
     0.0000   0.0000   0.0000   0.0000   0.0000   0.0000   0.0000   0.0000
     0.0000   0.0000   0.0000   0.0000   0.0000   0.0000   0.0000   0.0000
     0.0000   0.0000   0.0000   0.0000   0.0000   0.0000   0.0000   0.0000
     0.0000   0.0000   0.0000   0.0000   0.0000   0.0000   0.0000   0.0000
     0.0000   0.0000   0.0000   0.0000   0.0000   0.0000   0.0000   0.0000
     0.0000   0.0000   0.0000   0.0000   0.0000   0.0000   0.0000   0.0000
     0.0000   0.0000   0.0000   0.0000   0.0000   0.0000   0.0000   0.0000
     0.0000   0.0000   0.0000   0.0000   0.0000   0.0000   0.0000   0.0000
     0.0000   0.0000   0.0000   0.0000   0.0000   0.0000   0.0000   0.0000
     0.0000   0.0000   0.0000   0.0000   0.0000   0.0000   0.0000   0.0000
     0.0000   0.0000   0.0000   0.0000   0.0000   0.0000   0.0000   0.0000
     0.0000   0.0000   0.0000   0.0000   0.0000   0.0000   0.0000   0.0000
     0.0000   0.0000   0.0000   0.0000   0.0000   0.0000   0.0000   0.0000
     0.0000   0.0000   0.0000   0.0000   0.0000   0.0000   0.0000   0.0000
     0.0000   0.0000   0.0000   0.0000   0.0000   0.0000   0.0000   0.0000
     0.0000   0.0000   0.0000   0.0000   0.0000   0.0000   0.0000   0.0000
     0.0000   0.0000   0.0000   0.0000   0.0000   0.0000   0.0000   0.0000
     0.0000   0.0000   0.0000   0.0000   0.0000   0.0000   0.0000   0.0000

          k = 0.0000-0.0000 0.1689 (  7433 PWs)   bands (ev):

  -102.7866-101.7813 -61.7285 -61.6664 -61.6664 -60.6286 -60.6189 -60.6189
    -8.3092  -8.2398  -7.5072  -7.4042   0.4146   0.9186   1.7688   1.7688
     2.4907   2.4907   3.1279   3.2314   3.2314   3.5425   4.0116   4.0116
     4.1547   4.2796   4.4314   4.4314   4.4814   4.4814   5.4151   5.4151
     5.9039   5.9039   8.6893   9.6642   9.7327   9.7863  11.5937  11.5937
    11.7193  11.7193  12.1410  12.5408  14.0428  14.1049  14.1049  14.2964
    14.2964  14.3706  15.6699  15.7550  15.9933  16.2341  16.2341  16.6445
    16.6445  16.7709  16.7709  16.9444  16.9658  17.6312  17.6312  18.3932
    19.2594  19.2594  20.0827  20.7871  20.7871  21.0132  21.0132  21.2244
    21.5259  23.0273  23.0273  23.0840  24.1510  24.1551  24.1551  24.4635
    26.0720  26.0720  26.4196  26.5815  26.5815  26.9595  27.1147  28.6680
    28.6680  29.8114  30.3272  30.3272  31.3415  32.3495  32.4084  32.4256
    32.8315  33.0490  33.0490  33.2674  33.2674  33.7664  33.8901  34.0518
    34.1562  34.1562  34.6022  34.6022  35.3700  35.4284  35.4284  35.4693
    35.4693  35.5228  35.5228  36.4776  36.4776  36.4987  36.4987  36.7257
    36.7257  36.8224  36.8224  37.4490  37.9428  38.7391  38.7391  39.9063
    39.9519  40.6059  40.6093  40.6093  40.8822  41.2059  41.2690  41.2690
    41.2745  41.4058  41.7046  41.7046  42.0496  42.0496  42.1047  42.2515
    42.4917  42.6646  42.6646  43.2790  43.3476  43.3476  43.5737  43.7195
    43.7195  44.0004  44.3462  44.7347  44.7347  44.9648  45.0729  45.4461
    45.4461  45.5475  45.9789  45.9789  47.2253  47.3033  47.4523  47.5399
    47.5399  47.8220  47.8220  48.2063  48.4154  48.4154  48.5421  48.5421
    48.7766  49.0628  49.1433  49.2725  49.2725  49.5371  49.5371  50.1127
    50.1127  50.1293  50.1293  50.6247  50.6247  50.7656  50.7656  50.9706
    50.9706  51.0024  51.0024  51.0389  51.9115  51.9115  52.5481  52.5481

     occupation numbers 
     1.0000   1.0000   1.0000   1.0000   1.0000   1.0000   1.0000   1.0000
     1.0000   1.0000   1.0000   1.0000   1.0000   1.0000   1.0000   1.0000
     1.0000   1.0000   1.0000   1.0000   1.0000   1.0000   1.0000   1.0000
     1.0000   1.0000   1.0000   1.0000   1.0000   1.0000   0.5217   0.5217
     0.0000   0.0000   0.0000   0.0000   0.0000   0.0000   0.0000   0.0000
     0.0000   0.0000   0.0000   0.0000   0.0000   0.0000   0.0000   0.0000
     0.0000   0.0000   0.0000   0.0000   0.0000   0.0000   0.0000   0.0000
     0.0000   0.0000   0.0000   0.0000   0.0000   0.0000   0.0000   0.0000
     0.0000   0.0000   0.0000   0.0000   0.0000   0.0000   0.0000   0.0000
     0.0000   0.0000   0.0000   0.0000   0.0000   0.0000   0.0000   0.0000
     0.0000   0.0000   0.0000   0.0000   0.0000   0.0000   0.0000   0.0000
     0.0000   0.0000   0.0000   0.0000   0.0000   0.0000   0.0000   0.0000
     0.0000   0.0000   0.0000   0.0000   0.0000   0.0000   0.0000   0.0000
     0.0000   0.0000   0.0000   0.0000   0.0000   0.0000   0.0000   0.0000
     0.0000   0.0000   0.0000   0.0000   0.0000   0.0000   0.0000   0.0000
     0.0000   0.0000   0.0000   0.0000   0.0000   0.0000   0.0000   0.0000
     0.0000   0.0000   0.0000   0.0000   0.0000   0.0000   0.0000   0.0000
     0.0000   0.0000   0.0000   0.0000   0.0000   0.0000   0.0000   0.0000
     0.0000   0.0000   0.0000   0.0000   0.0000   0.0000   0.0000   0.0000
     0.0000   0.0000   0.0000   0.0000   0.0000   0.0000   0.0000   0.0000
     0.0000   0.0000   0.0000   0.0000   0.0000   0.0000   0.0000   0.0000
     0.0000   0.0000   0.0000   0.0000   0.0000   0.0000   0.0000   0.0000
     0.0000   0.0000   0.0000   0.0000   0.0000   0.0000   0.0000   0.0000
     0.0000   0.0000   0.0000   0.0000   0.0000   0.0000   0.0000   0.0000
     0.0000   0.0000   0.0000   0.0000   0.0000   0.0000   0.0000   0.0000

          k =-0.5983-0.3454 0.2252 (  7457 PWs)   bands (ev):

  -102.7882-101.7829 -61.7337 -61.6906 -61.6896 -60.6457 -60.6426 -60.6363
    -8.1176  -8.0583  -7.3983  -7.3141   0.6542   1.0080   1.5062   1.7700
     1.9899   2.4860   2.6402   2.9298   3.0956   3.3116   3.5653   3.6184
     3.9027   4.0395   4.1028   4.2493   4.5167   4.5383   4.6478   5.2594
     5.2710   5.7428   9.5450   9.7668  10.1186  10.8416  11.2498  11.6632
    12.0147  12.2477  12.3202  12.9993  13.0679  13.3776  13.4692  14.3218
    14.4126  14.8616  14.9000  14.9639  15.6609  15.9092  16.1329  17.1268
    17.5037  17.8029  18.2018  18.4129  18.7815  18.7909  18.8464  19.3969
    19.8863  19.9933  20.3343  20.3396  20.5062  20.6132  20.7696  21.3656
    22.0215  23.3866  24.1655  24.8165  24.9267  24.9619  25.0081  25.1020
    25.7158  26.1600  26.1722  26.4202  26.8371  26.9492  27.6823  28.5792
    28.6668  28.7228  29.6475  29.8540  29.9312  29.9314  30.5379  31.1465
    31.1818  31.4246  31.4396  31.5577  31.8870  32.3205  32.6147  32.7845
    33.4050  33.7164  33.8395  34.0674  34.5460  34.5690  34.7792  35.5117
    35.6854  35.7476  36.1259  36.2815  36.7192  36.9154  36.9777  37.4447
    37.6747  38.1509  38.3673  38.3802  38.4977  39.0912  39.2269  39.2572
    39.3956  39.8719  39.9766  40.2147  40.2699  40.4260  40.5905  40.8644
    40.8670  40.9907  41.3249  41.7182  41.7589  41.7641  41.8091  41.8505
    42.0671  42.0914  42.1548  42.7385  42.9167  43.5328  43.7148  43.8081
    44.0490  44.1273  44.2418  44.7563  44.8428  44.8865  45.0663  45.1232
    45.2464  45.5040  45.7815  45.9135  46.0908  46.3246  46.3685  47.0292
    47.1123  47.5635  47.5728  47.8001  47.8775  48.0089  48.3117  48.3660
    48.5157  48.6867  48.8993  49.6774  49.7101  50.0729  50.0821  50.4730
    50.5715  50.8024  50.9731  51.1186  51.1855  51.2699  51.3073  51.4259
    51.7232  51.7239  51.9055  52.2625  52.3005  52.3307  52.5444  52.5555

     occupation numbers 
     1.0000   1.0000   1.0000   1.0000   1.0000   1.0000   1.0000   1.0000
     1.0000   1.0000   1.0000   1.0000   1.0000   1.0000   1.0000   1.0000
     1.0000   1.0000   1.0000   1.0000   1.0000   1.0000   1.0000   1.0000
     1.0000   1.0000   1.0000   1.0000   1.0000   1.0000   1.0000   0.9528
     0.9396   0.0004   0.0000   0.0000   0.0000   0.0000   0.0000   0.0000
     0.0000   0.0000   0.0000   0.0000   0.0000   0.0000   0.0000   0.0000
     0.0000   0.0000   0.0000   0.0000   0.0000   0.0000   0.0000   0.0000
     0.0000   0.0000   0.0000   0.0000   0.0000   0.0000   0.0000   0.0000
     0.0000   0.0000   0.0000   0.0000   0.0000   0.0000   0.0000   0.0000
     0.0000   0.0000   0.0000   0.0000   0.0000   0.0000   0.0000   0.0000
     0.0000   0.0000   0.0000   0.0000   0.0000   0.0000   0.0000   0.0000
     0.0000   0.0000   0.0000   0.0000   0.0000   0.0000   0.0000   0.0000
     0.0000   0.0000   0.0000   0.0000   0.0000   0.0000   0.0000   0.0000
     0.0000   0.0000   0.0000   0.0000   0.0000   0.0000   0.0000   0.0000
     0.0000   0.0000   0.0000   0.0000   0.0000   0.0000   0.0000   0.0000
     0.0000   0.0000   0.0000   0.0000   0.0000   0.0000   0.0000   0.0000
     0.0000   0.0000   0.0000   0.0000   0.0000   0.0000   0.0000   0.0000
     0.0000   0.0000   0.0000   0.0000   0.0000   0.0000   0.0000   0.0000
     0.0000   0.0000   0.0000   0.0000   0.0000   0.0000   0.0000   0.0000
     0.0000   0.0000   0.0000   0.0000   0.0000   0.0000   0.0000   0.0000
     0.0000   0.0000   0.0000   0.0000   0.0000   0.0000   0.0000   0.0000
     0.0000   0.0000   0.0000   0.0000   0.0000   0.0000   0.0000   0.0000
     0.0000   0.0000   0.0000   0.0000   0.0000   0.0000   0.0000   0.0000
     0.0000   0.0000   0.0000   0.0000   0.0000   0.0000   0.0000   0.0000
     0.0000   0.0000   0.0000   0.0000   0.0000   0.0000   0.0000   0.0000

          k = 2.3932 1.3817-0.0563 (  7401 PWs)   bands (ev):

  -102.7851-101.7799 -61.7253 -61.6739 -61.6292 -60.6310 -60.6263 -60.5815
    -7.6600  -7.6118  -7.1979  -7.1403   0.5779   0.6580   1.0927   1.2286
     1.8257   1.8487   2.1405   2.5276   2.9766   3.0280   3.1608   3.2498
     3.2894   3.7730   3.8107   3.9959   4.3762   4.4829   4.6384   5.1786
     5.4139   5.6892   8.5205   8.6399  10.1862  10.6817  10.9694  11.5222
    12.2431  12.3239  12.6289  12.7578  13.4935  14.0404  14.1999  15.1436
    15.5828  15.6770  16.1080  16.1122  16.3055  16.4992  17.1192  17.4682
    17.5096  18.0948  18.3819  18.6236  19.4403  20.2244  20.8979  21.4355
    21.5577  21.5755  21.6633  22.3998  22.5056  22.9825  23.0671  23.2590
    23.6803  23.9382  23.9961  24.0916  24.3181  24.3253  24.7896  25.0217
    25.1811  25.3805  25.5397  25.5484  25.8730  25.9259  26.2569  26.6537
    27.2808  28.5247  28.5721  28.8194  29.2470  30.0905  30.3866  30.4614
    30.5531  30.9162  31.2376  31.3104  31.5178  31.6938  31.9877  32.4406
    32.6858  33.0555  33.0729  33.3169  33.7518  33.8493  34.3045  34.4193
    34.6842  34.7185  34.8124  34.8698  35.0488  35.1189  35.1942  35.7992
    35.8323  35.9243  36.0628  36.3445  37.2104  37.6588  38.3376  38.6010
    38.8551  39.2026  39.5340  39.6386  39.7869  39.9507  40.0023  40.1171
    40.6145  40.6881  40.8793  41.2975  41.5579  41.8023  41.8711  41.9207
    42.0897  42.2613  42.6424  42.7816  42.8121  42.8183  42.8774  42.9396
    43.2123  43.3818  43.5364  44.1567  44.3669  44.3719  44.6269  44.7291
    45.0245  45.0495  45.9401  46.0767  46.4359  46.4808  46.9347  47.0946
    47.2151  47.3961  47.4924  47.6800  48.1459  48.2079  48.4023  49.1947
    49.2346  49.3858  49.5121  49.6027  49.8497  49.9946  50.1159  50.3862
    50.5606  50.7748  50.9844  51.1165  51.3218  51.3262  51.5465  52.0449
    52.1932  52.2833  52.9198  53.0319  53.0962  53.4689  53.5864  53.7082

     occupation numbers 
     1.0000   1.0000   1.0000   1.0000   1.0000   1.0000   1.0000   1.0000
     1.0000   1.0000   1.0000   1.0000   1.0000   1.0000   1.0000   1.0000
     1.0000   1.0000   1.0000   1.0000   1.0000   1.0000   1.0000   1.0000
     1.0000   1.0000   1.0000   1.0000   1.0000   1.0000   1.0000   0.9940
     0.5265   0.0026   0.0000   0.0000   0.0000   0.0000   0.0000   0.0000
     0.0000   0.0000   0.0000   0.0000   0.0000   0.0000   0.0000   0.0000
     0.0000   0.0000   0.0000   0.0000   0.0000   0.0000   0.0000   0.0000
     0.0000   0.0000   0.0000   0.0000   0.0000   0.0000   0.0000   0.0000
     0.0000   0.0000   0.0000   0.0000   0.0000   0.0000   0.0000   0.0000
     0.0000   0.0000   0.0000   0.0000   0.0000   0.0000   0.0000   0.0000
     0.0000   0.0000   0.0000   0.0000   0.0000   0.0000   0.0000   0.0000
     0.0000   0.0000   0.0000   0.0000   0.0000   0.0000   0.0000   0.0000
[...]
     1.0000   1.0000   1.0000   1.0000   1.0000   1.0000   1.0000   1.0000
     1.0000   1.0000   1.0000   1.0000   1.0000   1.0000   1.0000   1.0000
     1.0000   1.0000   1.0000   1.0000   1.0000   1.0000   1.0000   1.0000
     1.0000   1.0000   1.0000   1.0000   1.0000   1.0000   0.9394   0.0005
     0.0001   0.0000   0.0000   0.0000   0.0000   0.0000   0.0000   0.0000
     0.0000   0.0000   0.0000   0.0000   0.0000   0.0000   0.0000   0.0000
     0.0000   0.0000   0.0000   0.0000   0.0000   0.0000   0.0000   0.0000
     0.0000   0.0000   0.0000   0.0000   0.0000   0.0000   0.0000   0.0000
     0.0000   0.0000   0.0000   0.0000   0.0000   0.0000   0.0000   0.0000
     0.0000   0.0000   0.0000   0.0000   0.0000   0.0000   0.0000   0.0000
     0.0000   0.0000   0.0000   0.0000   0.0000   0.0000   0.0000   0.0000
     0.0000   0.0000   0.0000   0.0000   0.0000   0.0000   0.0000   0.0000
     0.0000   0.0000   0.0000   0.0000   0.0000   0.0000   0.0000   0.0000
     0.0000   0.0000   0.0000   0.0000   0.0000   0.0000   0.0000   0.0000
     0.0000   0.0000   0.0000   0.0000   0.0000   0.0000   0.0000   0.0000
     0.0000   0.0000   0.0000   0.0000   0.0000   0.0000   0.0000   0.0000
     0.0000   0.0000   0.0000   0.0000   0.0000   0.0000   0.0000   0.0000
     0.0000   0.0000   0.0000   0.0000   0.0000   0.0000   0.0000   0.0000
     0.0000   0.0000   0.0000   0.0000   0.0000   0.0000   0.0000   0.0000
     0.0000   0.0000   0.0000   0.0000   0.0000   0.0000   0.0000   0.0000
     0.0000   0.0000   0.0000   0.0000   0.0000   0.0000   0.0000   0.0000
     0.0000   0.0000   0.0000   0.0000   0.0000   0.0000   0.0000   0.0000
     0.0000   0.0000   0.0000   0.0000   0.0000   0.0000   0.0000   0.0000
     0.0000   0.0000   0.0000   0.0000   0.0000   0.0000   0.0000   0.0000
     0.0000   0.0000   0.0000   0.0000   0.0000   0.0000   0.0000   0.0000

          k = 2.3932 1.3817 0.1126 (  7404 PWs)   bands (ev):

  -101.7462-101.6615 -60.5911 -60.5895 -60.5518 -60.4349 -60.4279 -60.3876
    -7.6425  -7.3912  -7.1733  -6.8987   0.6463   0.7903   1.1934   1.4794
     2.1194   2.3724   2.5561   2.8893   3.1791   3.3124   3.3677   3.5458
     3.9996   4.0861   4.3987   4.4549   4.4849   4.5571   5.2860   5.7277
     5.8754   6.1733   8.5684   8.8507  10.1885  10.7075  11.3160  11.4387
    12.3583  12.5988  12.6289  12.9635  13.5345  13.9375  14.2461  15.4102
    15.8972  15.9419  16.0403  16.1353  16.1785  16.7355  17.0667  17.5077
    17.5350  18.4130  18.7948  18.8530  19.3004  20.5651  21.0644  21.0950
    21.4762  21.7413  21.7992  22.4681  22.5287  22.7424  23.1275  23.2943
    24.1220  24.1612  24.2586  24.4226  24.6988  24.8227  24.9194  25.0837
    25.1888  25.4944  25.6054  25.6847  25.8005  25.8865  26.3259  26.6419
    26.8467  28.7423  28.8236  28.9796  29.6238  29.6923  30.1333  30.2498
    30.9191  31.0943  31.2020  31.4288  31.9827  32.1060  32.3961  32.9884
    33.0636  33.1257  33.1962  33.3840  33.6335  34.1159  34.2333  34.4088
    34.4841  34.6230  34.6474  34.8291  35.1138  35.2201  35.4371  35.5210
    35.7087  36.0748  36.5272  36.6570  37.7448  37.9755  38.0201  38.7124
    38.8696  38.9070  39.0035  39.7349  39.9572  40.3044  40.3235  40.5721
    40.6177  40.8545  40.9070  41.5342  41.6227  41.9296  42.1422  42.1782
    42.2135  42.2556  42.4428  42.6357  42.7621  42.8348  43.0173  43.2870
    43.5889  43.6451  43.8861  44.0660  44.2251  44.3341  44.6595  44.8975
    45.1080  45.4225  45.7996  46.7301  46.7833  46.9204  46.9764  47.1669
    47.2173  47.4031  47.7936  47.8588  48.1182  48.3704  48.3840  48.4960
    48.6526  49.0581  49.3069  49.5579  49.9833  50.1514  50.3134  50.4707
    50.7402  50.8453  50.9666  51.2733  51.7883  51.8228  51.8793  51.9868
    52.2653  52.5413  52.5636  53.2035  53.2065  53.3464  53.6400  53.8239

     occupation numbers 
     1.0000   1.0000   1.0000   1.0000   1.0000   1.0000   1.0000   1.0000
     1.0000   1.0000   1.0000   1.0000   1.0000   1.0000   1.0000   1.0000
     1.0000   1.0000   1.0000   1.0000   1.0000   1.0000   1.0000   1.0000
     1.0000   1.0000   1.0000   1.0000   1.0000   1.0000   0.9187   0.0007
     0.0000   0.0000   0.0000   0.0000   0.0000   0.0000   0.0000   0.0000
     0.0000   0.0000   0.0000   0.0000   0.0000   0.0000   0.0000   0.0000
     0.0000   0.0000   0.0000   0.0000   0.0000   0.0000   0.0000   0.0000
     0.0000   0.0000   0.0000   0.0000   0.0000   0.0000   0.0000   0.0000
     0.0000   0.0000   0.0000   0.0000   0.0000   0.0000   0.0000   0.0000
     0.0000   0.0000   0.0000   0.0000   0.0000   0.0000   0.0000   0.0000
     0.0000   0.0000   0.0000   0.0000   0.0000   0.0000   0.0000   0.0000
     0.0000   0.0000   0.0000   0.0000   0.0000   0.0000   0.0000   0.0000
     0.0000   0.0000   0.0000   0.0000   0.0000   0.0000   0.0000   0.0000
     0.0000   0.0000   0.0000   0.0000   0.0000   0.0000   0.0000   0.0000
     0.0000   0.0000   0.0000   0.0000   0.0000   0.0000   0.0000   0.0000
     0.0000   0.0000   0.0000   0.0000   0.0000   0.0000   0.0000   0.0000
     0.0000   0.0000   0.0000   0.0000   0.0000   0.0000   0.0000   0.0000
     0.0000   0.0000   0.0000   0.0000   0.0000   0.0000   0.0000   0.0000
     0.0000   0.0000   0.0000   0.0000   0.0000   0.0000   0.0000   0.0000
     0.0000   0.0000   0.0000   0.0000   0.0000   0.0000   0.0000   0.0000
     0.0000   0.0000   0.0000   0.0000   0.0000   0.0000   0.0000   0.0000
     0.0000   0.0000   0.0000   0.0000   0.0000   0.0000   0.0000   0.0000
     0.0000   0.0000   0.0000   0.0000   0.0000   0.0000   0.0000   0.0000
     0.0000   0.0000   0.0000   0.0000   0.0000   0.0000   0.0000   0.0000
     0.0000   0.0000   0.0000   0.0000   0.0000   0.0000   0.0000   0.0000

          k = 2.9915-1.7271-0.2252 (  7464 PWs)   bands (ev):

  -101.7495-101.6647 -60.6117 -60.6117 -60.6036 -60.4509 -60.4494 -60.4433
    -8.0928  -7.8535  -7.3621  -7.0892   0.8395   1.0037   2.0208   2.2704
     2.5086   2.8321   2.9348   3.1271   3.6365   3.7806   3.8264   4.0447
     4.0759   4.1423   4.5196   4.5620   4.6128   4.6537   5.2529   5.7050
     5.7677   6.2068   9.7493   9.8480  10.4254  10.6241  11.3017  11.6290
    12.2592  12.3117  12.3975  12.9970  13.3396  13.5565  13.7851  14.0009
    14.6043  14.6196  14.8544  15.6439  15.6993  16.3962  16.4402  17.3159
    17.4777  17.7072  18.1964  18.2880  18.6342  18.9805  19.0276  19.1462
    19.3742  19.9599  20.4395  20.5845  21.2179  21.4116  21.6635  21.8223
    22.5498  23.2606  23.6064  23.6756  24.0262  24.7177  24.7333  25.3592
    25.4811  26.5922  27.0497  27.2700  27.4287  28.2556  28.6146  28.7518
    29.0314  29.1976  29.3656  29.5334  29.9523  30.0556  30.1647  30.3176
    30.3348  30.7305  31.3733  31.5133  31.7700  32.1321  32.5121  33.5268
    33.6673  33.7947  33.9267  34.8633  35.4146  35.6160  35.7571  35.8035
    35.8691  36.1514  36.1630  36.6117  36.7365  36.8732  37.0723  37.2185
    37.5754  37.6792  37.8291  38.1109  38.7474  38.8381  39.0493  39.1322
    39.2231  39.8603  39.8748  40.1202  40.1974  40.2842  40.5249  40.5934
    40.8249  40.9871  41.7011  41.7222  41.8044  41.9096  42.0093  42.4233
    42.5430  42.6011  42.6335  43.3546  43.4611  43.6497  44.3029  44.3699
    44.4247  44.4567  44.5311  44.5341  44.7618  45.0589  45.1405  45.3745
    45.4381  45.6995  45.9129  46.0183  46.0712  46.5208  46.6052  46.6635
    46.7837  46.8995  47.5559  47.5661  47.6276  47.6924  48.2131  48.3006
    48.3421  48.8923  48.9704  49.3093  49.8032  49.9347  50.4101  50.4340
    50.6510  50.6877  50.9344  51.2434  51.5939  51.6594  51.6909  51.8363
    51.9181  52.0340  52.3766  52.5352  52.5630  52.6045  52.9183  53.0751

     occupation numbers 
     1.0000   1.0000   1.0000   1.0000   1.0000   1.0000   1.0000   1.0000
     1.0000   1.0000   1.0000   1.0000   1.0000   1.0000   1.0000   1.0000
     1.0000   1.0000   1.0000   1.0000   1.0000   1.0000   1.0000   1.0000
     1.0000   1.0000   1.0000   1.0000   1.0000   1.0000   0.9591   0.0015
     0.0002   0.0000   0.0000   0.0000   0.0000   0.0000   0.0000   0.0000
     0.0000   0.0000   0.0000   0.0000   0.0000   0.0000   0.0000   0.0000
     0.0000   0.0000   0.0000   0.0000   0.0000   0.0000   0.0000   0.0000
     0.0000   0.0000   0.0000   0.0000   0.0000   0.0000   0.0000   0.0000
     0.0000   0.0000   0.0000   0.0000   0.0000   0.0000   0.0000   0.0000
     0.0000   0.0000   0.0000   0.0000   0.0000   0.0000   0.0000   0.0000
     0.0000   0.0000   0.0000   0.0000   0.0000   0.0000   0.0000   0.0000
     0.0000   0.0000   0.0000   0.0000   0.0000   0.0000   0.0000   0.0000
     0.0000   0.0000   0.0000   0.0000   0.0000   0.0000   0.0000   0.0000
     0.0000   0.0000   0.0000   0.0000   0.0000   0.0000   0.0000   0.0000
     0.0000   0.0000   0.0000   0.0000   0.0000   0.0000   0.0000   0.0000
     0.0000   0.0000   0.0000   0.0000   0.0000   0.0000   0.0000   0.0000
     0.0000   0.0000   0.0000   0.0000   0.0000   0.0000   0.0000   0.0000
     0.0000   0.0000   0.0000   0.0000   0.0000   0.0000   0.0000   0.0000
     0.0000   0.0000   0.0000   0.0000   0.0000   0.0000   0.0000   0.0000
     0.0000   0.0000   0.0000   0.0000   0.0000   0.0000   0.0000   0.0000
     0.0000   0.0000   0.0000   0.0000   0.0000   0.0000   0.0000   0.0000
     0.0000   0.0000   0.0000   0.0000   0.0000   0.0000   0.0000   0.0000
     0.0000   0.0000   0.0000   0.0000   0.0000   0.0000   0.0000   0.0000
     0.0000   0.0000   0.0000   0.0000   0.0000   0.0000   0.0000   0.0000
     0.0000   0.0000   0.0000   0.0000   0.0000   0.0000   0.0000   0.0000

          k = 2.3932-2.0726-0.1689 (  7428 PWs)   bands (ev):

  -101.7475-101.6628 -60.6049 -60.5951 -60.5712 -60.4468 -60.4350 -60.4080
    -7.7718  -7.5249  -7.2137  -6.9399   0.9477   1.0840   1.5070   1.6841
     2.1653   2.3186   2.3994   2.7115   2.9498   3.2116   3.5877   3.8111
     4.1247   4.1266   4.4586   4.4756   4.5842   4.6121   5.2838   5.4149
     5.7484   5.8780   9.6053   9.7161  10.8287  10.8709  11.8637  11.9334
    12.2391  12.3466  12.6628  12.6672  12.8100  12.9278  14.2229  14.3832
    14.4757  14.4787  15.8176  15.8681  16.7696  16.8621  17.5505  17.6733
    18.1365  18.1585  18.5852  18.5933  20.2213  20.2987  20.5684  20.6322
    21.0292  21.0775  21.1779  21.1840  21.7162  21.8265  22.9576  22.9702
    23.4432  23.4893  23.6709  23.7092  24.3183  24.3189  25.3486  25.4900
    25.4962  25.5604  26.7076  26.7352  27.2768  27.3100  28.1518  28.2113
    28.4029  28.4550  29.1078  29.1752  29.4569  29.5420  30.1651  30.2389
    30.7050  30.8145  30.8809  31.0380  31.6025  31.6363  31.8746  31.9945
    32.3491  32.3508  33.4477  33.4551  33.4628  33.5023  33.9506  34.0077
    35.4187  35.4699  35.7337  35.7444  36.3196  36.4275  36.5645  36.7063
    36.8623  36.8948  37.0688  37.1201  37.4528  37.4530  38.6968  38.7689
    39.0663  39.1411  39.4885  39.5759  39.8008  39.8021  40.1142  40.1392
    40.2493  40.3474  40.7723  40.7889  41.0564  41.0837  41.7127  41.7935
    42.2390  42.3575  42.9409  43.0158  43.2122  43.2253  43.5296  43.6819
    44.0451  44.0480  44.2713  44.2723  44.8315  44.8567  45.3972  45.4222
    46.3585  46.3750  46.6506  46.6557  47.0785  47.1303  47.3242  47.3503
    47.8064  47.8347  47.9497  47.9868  48.2908  48.3372  48.9078  48.9204
    49.1014  49.1114  49.4751  49.5452  49.6849  49.7654  50.0340  50.1464
    50.2242  50.2577  50.4600  50.5206  51.1986  51.2305  51.3845  51.3941
    52.0866  52.1246  52.2632  52.2752  52.4997  52.5019  53.1614  53.1731

     occupation numbers 
     1.0000   1.0000   1.0000   1.0000   1.0000   1.0000   1.0000   1.0000
     1.0000   1.0000   1.0000   1.0000   1.0000   1.0000   1.0000   1.0000
     1.0000   1.0000   1.0000   1.0000   1.0000   1.0000   1.0000   1.0000
     1.0000   1.0000   1.0000   1.0000   1.0000   1.0000   0.9219   0.5224
     0.0003   0.0000   0.0000   0.0000   0.0000   0.0000   0.0000   0.0000
     0.0000   0.0000   0.0000   0.0000   0.0000   0.0000   0.0000   0.0000
     0.0000   0.0000   0.0000   0.0000   0.0000   0.0000   0.0000   0.0000
     0.0000   0.0000   0.0000   0.0000   0.0000   0.0000   0.0000   0.0000
     0.0000   0.0000   0.0000   0.0000   0.0000   0.0000   0.0000   0.0000
     0.0000   0.0000   0.0000   0.0000   0.0000   0.0000   0.0000   0.0000
     0.0000   0.0000   0.0000   0.0000   0.0000   0.0000   0.0000   0.0000
     0.0000   0.0000   0.0000   0.0000   0.0000   0.0000   0.0000   0.0000
     0.0000   0.0000   0.0000   0.0000   0.0000   0.0000   0.0000   0.0000
     0.0000   0.0000   0.0000   0.0000   0.0000   0.0000   0.0000   0.0000
     0.0000   0.0000   0.0000   0.0000   0.0000   0.0000   0.0000   0.0000
     0.0000   0.0000   0.0000   0.0000   0.0000   0.0000   0.0000   0.0000
     0.0000   0.0000   0.0000   0.0000   0.0000   0.0000   0.0000   0.0000
     0.0000   0.0000   0.0000   0.0000   0.0000   0.0000   0.0000   0.0000
     0.0000   0.0000   0.0000   0.0000   0.0000   0.0000   0.0000   0.0000
     0.0000   0.0000   0.0000   0.0000   0.0000   0.0000   0.0000   0.0000
     0.0000   0.0000   0.0000   0.0000   0.0000   0.0000   0.0000   0.0000
     0.0000   0.0000   0.0000   0.0000   0.0000   0.0000   0.0000   0.0000
     0.0000   0.0000   0.0000   0.0000   0.0000   0.0000   0.0000   0.0000
     0.0000   0.0000   0.0000   0.0000   0.0000   0.0000   0.0000   0.0000
     0.0000   0.0000   0.0000   0.0000   0.0000   0.0000   0.0000   0.0000

          k = 0.0000 0.0000-0.5066 (  7440 PWs)   bands (ev):

  -101.7479-101.6632 -60.6150 -60.5777 -60.5777 -60.4597 -60.4165 -60.4165
    -8.2793  -8.0444  -7.4616  -7.1906   0.6695   0.8162   2.5197   2.5197
     2.8377   2.8377   3.6349   3.8373   4.0425   4.0425   4.1100   4.1100
     4.2605   4.2743   4.4588   4.4588   4.7065   4.7065   5.9335   5.9335
     6.3478   6.3478   9.2678   9.3552   9.7294   9.8307  11.6890  11.6890
    11.7546  11.7546  12.4252  12.4270  14.2491  14.2491  14.2857  14.4038
    14.4038  14.4591  15.8855  15.9377  16.4013  16.4013  16.4862  16.4862
    16.5150  16.5533  17.2774  17.3393  17.4308  17.4308  17.4872  17.4872
    19.7655  19.7655  19.8658  19.8658  21.8550  21.8569  22.4207  22.4259
    22.4259  22.4633  22.4710  22.4710  22.8128  22.8318  24.7687  24.7687
    24.8341  24.8341  27.9739  27.9940  28.2476  28.2476  28.2818  28.2818
    29.1202  29.1308  29.8804  29.8820  31.0605  31.0605  31.0628  31.0628
    32.3882  32.5355  33.8388  34.0382  34.0382  34.0710  34.1670  34.1670
    35.1541  35.1572  35.4353  35.4353  35.5450  35.5450  36.1622  36.1622
    36.1999  36.1999  36.2534  36.2994  36.2994  36.3187  36.4284  36.4284
    36.7858  36.7858  36.8661  36.8661  38.2286  38.2498  38.7700  38.7700
    38.7842  38.7842  40.5898  40.6544  40.9058  40.9946  41.6731  41.6731
    41.6905  41.6931  41.7553  41.7553  42.1024  42.1126  42.5535  42.5535
    42.6892  42.6892  43.2570  43.3154  43.8972  44.0725  44.4204  44.4204
    44.4920  44.4920  44.9662  45.0347  45.2771  45.2771  45.2920  45.2920
    45.6870  45.7553  45.9117  46.0193  46.6291  46.6291  46.7378  46.7378
    47.4917  47.4917  47.5350  47.5350  48.7353  48.7370  48.8945  48.8945
    48.9821  48.9821  49.0538  49.0834  49.4287  49.4287  49.5762  49.5762
    50.4116  50.4116  50.4610  50.4610  50.7670  50.7983  50.9074  50.9074
    50.9384  50.9384  51.1362  51.1849  52.3610  52.3610  52.3814  52.3814

     occupation numbers 
     1.0000   1.0000   1.0000   1.0000   1.0000   1.0000   1.0000   1.0000
     1.0000   1.0000   1.0000   1.0000   1.0000   1.0000   1.0000   1.0000
     1.0000   1.0000   1.0000   1.0000   1.0000   1.0000   1.0000   1.0000
     1.0000   1.0000   1.0000   1.0000   1.0000   1.0000   0.0000   0.0000
     0.0000   0.0000   0.0000   0.0000   0.0000   0.0000   0.0000   0.0000
     0.0000   0.0000   0.0000   0.0000   0.0000   0.0000   0.0000   0.0000
     0.0000   0.0000   0.0000   0.0000   0.0000   0.0000   0.0000   0.0000
     0.0000   0.0000   0.0000   0.0000   0.0000   0.0000   0.0000   0.0000
     0.0000   0.0000   0.0000   0.0000   0.0000   0.0000   0.0000   0.0000
     0.0000   0.0000   0.0000   0.0000   0.0000   0.0000   0.0000   0.0000
     0.0000   0.0000   0.0000   0.0000   0.0000   0.0000   0.0000   0.0000
     0.0000   0.0000   0.0000   0.0000   0.0000   0.0000   0.0000   0.0000
     0.0000   0.0000   0.0000   0.0000   0.0000   0.0000   0.0000   0.0000
     0.0000   0.0000   0.0000   0.0000   0.0000   0.0000   0.0000   0.0000
     0.0000   0.0000   0.0000   0.0000   0.0000   0.0000   0.0000   0.0000
     0.0000   0.0000   0.0000   0.0000   0.0000   0.0000   0.0000   0.0000
     0.0000   0.0000   0.0000   0.0000   0.0000   0.0000   0.0000   0.0000
     0.0000   0.0000   0.0000   0.0000   0.0000   0.0000   0.0000   0.0000
     0.0000   0.0000   0.0000   0.0000   0.0000   0.0000   0.0000   0.0000
     0.0000   0.0000   0.0000   0.0000   0.0000   0.0000   0.0000   0.0000
     0.0000   0.0000   0.0000   0.0000   0.0000   0.0000   0.0000   0.0000
     0.0000   0.0000   0.0000   0.0000   0.0000   0.0000   0.0000   0.0000
     0.0000   0.0000   0.0000   0.0000   0.0000   0.0000   0.0000   0.0000
     0.0000   0.0000   0.0000   0.0000   0.0000   0.0000   0.0000   0.0000
     0.0000   0.0000   0.0000   0.0000   0.0000   0.0000   0.0000   0.0000

     the Fermi energy is     5.4203 ev
     (compare with:     5.4203 eV, computed in scf)

     Writing all to output data dir ./tmp/NiI2.save/ :
     XML data file, pseudopotentials, collected wavefunctions

     init_run     :      1.15s CPU      1.29s WALL (       1 calls)
     electrons    :     99.15s CPU    100.49s WALL (       1 calls)

     Called by init_run:
     wfcinit      :      0.00s CPU      0.01s WALL (       1 calls)
     wfcinit:atom :      0.00s CPU      0.00s WALL (       8 calls)
     wfcinit:wfcr :      2.58s CPU      2.63s WALL (       8 calls)
     potinit      :      0.13s CPU      0.19s WALL (       1 calls)
     hinit0       :      0.89s CPU      0.95s WALL (       1 calls)

     Called by electrons:
     c_bands      :     99.12s CPU    100.46s WALL (       1 calls)
     v_of_rho     :      0.08s CPU      0.10s WALL (       1 calls)
     v_h          :      0.00s CPU      0.00s WALL (       1 calls)
     v_xc         :      0.07s CPU      0.09s WALL (       1 calls)

     Called by c_bands:
     init_us_2    :      0.00s CPU      0.00s WALL (       8 calls)
     cegterg      :     86.51s CPU     87.76s WALL (      20 calls)

     Called by sum_band:

     Called by *egterg:
     cdiaghg      :     36.69s CPU     37.04s WALL (     364 calls)
     cegterg:over :      2.17s CPU      2.35s WALL (     356 calls)
     cegterg:upda :      1.16s CPU      1.18s WALL (     356 calls)
     cegterg:last :      2.49s CPU      2.72s WALL (     172 calls)
     cdiaghg:chol :      0.78s CPU      0.85s WALL (     364 calls)
     cdiaghg:inve :      0.75s CPU      0.77s WALL (     364 calls)
     cdiaghg:para :      5.02s CPU      5.24s WALL (     728 calls)
     h_psi        :     46.25s CPU     46.72s WALL (     384 calls)
     g_psi        :      0.03s CPU      0.03s WALL (     356 calls)

     Called by h_psi:
     h_psi:calbec :      0.36s CPU      0.40s WALL (     384 calls)
     vloc_psi     :     45.58s CPU     46.01s WALL (     384 calls)
                                        0.00s GPU  (     384 calls)
     add_vuspsi   :      0.28s CPU      0.28s WALL (     384 calls)

     General routines
     calbec       :      0.36s CPU      0.40s WALL (     384 calls)
     fft          :      0.87s CPU      0.93s WALL (      19 calls)
     fftw         :     41.33s CPU     41.71s WALL (   69968 calls)
     davcio       :      0.01s CPU      0.03s WALL (      16 calls)

     Parallel routines

     PWSCF        :   1m46.88s CPU   1m55.87s WALL


   This run was terminated on:  11:16:49   9Mar2026            

=------------------------------------------------------------------------------=
   JOB DONE.
=------------------------------------------------------------------------------=
