
     Program BANDS v.7.5 starts on  9Mar2026 at 12:12: 7 
        Git branch: HEAD
        Last git commit: 770a0b2d12928a67048e2f3da8d10d057e52179e
        Last git commit date: Tue Aug 19 09:57:12 2025 +0000
        Last git commit subject: Merge branch 'QE-7.5-RC' into 'master'

     This program is part of the open-source Quantum ESPRESSO suite
     for quantum simulation of materials; please cite
         "P. Giannozzi et al., J. Phys.:Condens. Matter 21 395502 (2009);
         "P. Giannozzi et al., J. Phys.:Condens. Matter 29 465901 (2017);
         "P. Giannozzi et al., J. Chem. Phys. 152 154105 (2020);
          URL http://www.quantum-espresso.org", 
     in publications or presentations arising from this work. More details at
     http://www.quantum-espresso.org/quote

     Parallel version (MPI), running on    32 processors

     MPI processes distributed on     1 nodes
     R & G space division:  proc/nbgrp/npool/nimage =      32
     242257 MiB available memory on the printing compute node when the environment starts


     Reading xml data from directory:

     ./tmp/NiI2.save/

     IMPORTANT: XC functional enforced from input :
     Exchange-correlation= PBESOL
                           (   1   4  10   8   0   0   0)
     Any further DFT definition will be discarded
     Please, verify this is what you really want


     Parallelization info
     --------------------
     sticks:   dense  smooth     PW     G-vecs:    dense   smooth      PW
     Min          96      96     27                 1853     1853     290
     Max          97      97     28                 1855     1855     292
     Sum        3099    3099    893                59333    59333    9327

     Using Pencil Decomposition


     Check: negative core charge=   -0.000024
     Reading collected, re-writing distributed wavefunctions
     high-symmetry point:  0.0000 0.0000 0.0000   x coordinate   0.0000
     high-symmetry point:  1.7949-1.0363 0.1689   x coordinate   2.0794
     high-symmetry point:  1.1331-2.1826 0.1689   x coordinate   3.4031
     high-symmetry point:  1.1331-1.9626 0.5066   x coordinate   3.8061
     high-symmetry point:  0.0000 0.0000 0.5066   x coordinate   6.0723
     high-symmetry point:  0.0000 0.0000 0.0000   x coordinate   6.5789
     high-symmetry point:  1.2284-2.1276-0.0000   x coordinate   9.0356
     high-symmetry point:  1.1331-2.0726 0.3377   x coordinate   9.3908
     high-symmetry point:  0.0000-2.0726 0.3377   x coordinate  10.5239
     high-symmetry point: -0.0000-1.9626 0.5066   x coordinate  10.7254
     high-symmetry point:  0.0000 0.0000 0.5066   x coordinate  12.6880
     high-symmetry point:  1.7949-1.0363 0.1689   x coordinate  14.7879
     high-symmetry point:  1.6996-0.9813 0.5066   x coordinate  15.1431

     Plottable bands (eV) written to file NiI2_bands.dat.gnu
     Bands written to file NiI2_bands.dat

 **************************************************************************

                    xk=(   0.00000,   0.00000,   0.00000  )

     point group D_3d (-3m) 
     there are  6 classes
     the character table:

       E     2C3   3C2'  i     2S6   3s_d 
A_1g   1.00  1.00  1.00  1.00  1.00  1.00
A_2g   1.00  1.00 -1.00  1.00  1.00 -1.00
E_g    2.00 -1.00  0.00  2.00 -1.00  0.00
A_1u   1.00  1.00  1.00 -1.00 -1.00 -1.00
A_2u   1.00  1.00 -1.00 -1.00 -1.00  1.00
E_u    2.00 -1.00  0.00 -2.00  1.00  0.00

     the symmetry operations in each class and the name of the first element:

     E        1
                                                                 
     2C3      3    4
                                                                 
     3C2'     2    5    6
                                                                 
     i        7
                                                                 
     2S6      9   10
                                                                 
     3s_d     8   11   12
                                                                 

     Band symmetry, D_3d (-3m)  point group:

     e(  1 -  1) =   -102.78486  eV     1   --> A_1g L_1       
     e(  2 -  2) =   -101.77960  eV     1   --> A_1g L_1       
     e(  3 -  3) =    -61.70293  eV     1   --> A_2u L_2'      
     e(  4 -  5) =    -61.65338  eV     2   --> E_u  L_3'      
     e(  6 -  7) =    -60.60544  eV     2   --> E_u  L_3'      
     e(  8 -  8) =    -60.59976  eV     1   --> A_2u L_2'      
     e(  9 -  9) =     -8.31349  eV     1   --> A_1g L_1       
     e( 10 - 10) =     -8.23410  eV     1   --> A_1g L_1       
     e( 11 - 11) =     -7.51483  eV     1   --> A_2u L_2'      
     e( 12 - 12) =     -7.39745  eV     1   --> A_2u L_2'      
     e( 13 - 13) =      0.38746  eV     1   --> A_1g L_1       
     e( 14 - 14) =      0.97397  eV     1   --> A_1g L_1       
     e( 15 - 16) =      1.78833  eV     2   --> E_g  L_3       
     e( 17 - 18) =      2.50496  eV     2   --> E_g  L_3       
     e( 19 - 19) =      3.05038  eV     1   --> A_2u L_2'      
     e( 20 - 21) =      3.25262  eV     2   --> E_g  L_3       
     e( 22 - 22) =      3.58186  eV     1   --> A_1g L_1       
     e( 23 - 24) =      4.03615  eV     2   --> E_g  L_3       
     e( 25 - 25) =      4.24451  eV     1   --> A_2u L_2'      
     e( 26 - 26) =      4.30405  eV     1   --> A_1g L_1       
     e( 27 - 28) =      4.42805  eV     2   --> E_u  L_3'      
     e( 29 - 30) =      4.48527  eV     2   --> E_u  L_3'      
     e( 31 - 32) =      5.42540  eV     2   --> E_g  L_3       
     e( 33 - 34) =      5.92290  eV     2   --> E_g  L_3       
     e( 35 - 35) =      8.60789  eV     1   --> A_1g L_1       
     e( 36 - 36) =      9.65665  eV     1   --> A_2u L_2'      
     e( 37 - 37) =      9.79668  eV     1   --> A_2u L_2'      
     e( 38 - 38) =      9.82154  eV     1   --> A_1g L_1       
     e( 39 - 40) =     11.58719  eV     2   --> E_u  L_3'      
     e( 41 - 42) =     11.72867  eV     2   --> E_u  L_3'      
     e( 43 - 43) =     12.11580  eV     1   --> A_2u L_2'      
     e( 44 - 44) =     12.58229  eV     1   --> A_1g L_1       
     e( 45 - 45) =     13.99933  eV     1   --> A_1g L_1       
     e( 46 - 47) =     14.09345  eV     2   --> E_g  L_3       
     e( 48 - 49) =     14.31180  eV     2   --> E_g  L_3       
     e( 50 - 50) =     14.39361  eV     1   --> A_1g L_1       
     e( 51 - 51) =     15.59051  eV     1   --> A_2u L_2'      
     e( 52 - 52) =     15.80213  eV     1   --> A_2u L_2'      
     e( 53 - 53) =     15.87110  eV     1   --> A_1g L_1       
     e( 54 - 55) =     16.36481  eV     2   --> E_u  L_3'      
     e( 56 - 57) =     16.41825  eV     2   --> E_g  L_3       
     e( 58 - 59) =     16.91780  eV     2   --> E_g  L_3       
     e( 60 - 60) =     16.97501  eV     1   --> A_2u L_2'      
     e( 61 - 61) =     17.06220  eV     1   --> A_1g L_1       
     e( 62 - 63) =     17.55213  eV     2   --> E_u  L_3'      
     e( 64 - 64) =     19.09844  eV     1   --> A_2u L_2'      
     e( 65 - 65) =     19.29251  eV     1   --> A_1g L_1       
     e( 66 - 67) =     19.32639  eV     2   --> E_u  L_3'      
     e( 68 - 69) =     20.75143  eV     2   --> E_g  L_3       
     e( 70 - 71) =     21.08218  eV     2   --> E_u  L_3'      
     e( 72 - 72) =     21.09998  eV     1   --> A_2u L_2'      
     e( 73 - 73) =     21.37116  eV     1   --> A_1g L_1       
     e( 74 - 75) =     22.70503  eV     2   --> E_g  L_3       
     e( 76 - 76) =     23.30052  eV     1   --> A_2u L_2'      
     e( 77 - 77) =     24.50673  eV     1   --> A_1g L_1       
     e( 78 - 79) =     25.02048  eV     2   --> E_g  L_3       
     e( 80 - 81) =     25.14146  eV     2   --> E_u  L_3'      
     e( 82 - 82) =     25.51883  eV     1   --> A_1g L_1       
     e( 83 - 83) =     25.85346  eV     1   --> A_2u L_2'      
     e( 84 - 84) =     26.26907  eV     1   --> A_1g L_1       
     e( 85 - 85) =     26.57265  eV     1   --> A_2u L_2'      
     e( 86 - 87) =     27.51187  eV     2   --> E_g  L_3       
     e( 88 - 89) =     27.71027  eV     2   --> E_u  L_3'      
     e( 90 - 90) =     30.38961  eV     1   --> A_2u L_2'      
     e( 91 - 92) =     30.92246  eV     2   --> E_u  L_3'      
     e( 93 - 93) =     31.72747  eV     1   --> A_1g L_1       
     e( 94 - 94) =     32.34527  eV     1   --> A_1u L_1'      
     e( 95 - 95) =     32.41330  eV     1   --> A_1u L_1'      
     e( 96 - 97) =     32.51138  eV     2   --> E_g  L_3       
     e( 98 - 98) =     32.60538  eV     1   --> A_2u L_2'      
     e( 99 - 99) =     33.27498  eV     1   --> A_1g L_1       
     e(100 -100) =     33.45962  eV     1   --> A_1g L_1       
     e(101 -101) =     33.75659  eV     1   --> A_2g L_2       
     e(102 -102) =     33.89948  eV     1   --> A_2g L_2       
     e(103 -104) =     34.15884  eV     2   --> E_u  L_3'      
     e(105 -106) =     34.27394  eV     2   --> E_g  L_3       
     e(107 -107) =     34.36727  eV     1   --> A_2u L_2'      
     e(108 -109) =     34.50301  eV     2   --> E_u  L_3'      
     e(110 -111) =     34.58572  eV     2   --> E_u  L_3'      
     e(112 -113) =     35.45516  eV     2   --> E_g  L_3       
     e(114 -115) =     35.53704  eV     2   --> E_g  L_3       
     e(116 -117) =     36.51234  eV     2   --> E_g  L_3       
     e(118 -119) =     36.53307  eV     2   --> E_g  L_3       
     e(120 -121) =     36.60819  eV     2   --> E_u  L_3'      
     e(122 -123) =     36.73815  eV     2   --> E_u  L_3'      
     e(124 -124) =     37.88969  eV     1   --> A_1g L_1       
     e(125 -125) =     38.30055  eV     1   --> A_2u L_2'      
     e(126 -127) =     39.48702  eV     2   --> E_u  L_3'      
     e(128 -128) =     40.07709  eV     1   --> A_1g L_1       
     e(129 -129) =     40.34484  eV     1   --> A_2u L_2'      
     e(130 -130) =     40.53448  eV     1   --> A_2u L_2'      
     e(131 -131) =     40.56790  eV     1   --> A_1u L_1'      
     e(132 -132) =     40.69659  eV     1   --> A_1g L_1       
     e(133 -134) =     40.91196  eV     2   --> E_g  L_3       
     e(135 -136) =     41.08203  eV     2   --> E_g  L_3       
     e(137 -137) =     41.20032  eV     1   --> A_1g L_1       
     e(138 -138) =     41.26498  eV     1   --> A_1u L_1'      
     e(139 -140) =     41.31694  eV     2   --> E_u  L_3'      
     e(141 -142) =     41.99684  eV     2   --> E_u  L_3'      
     e(143 -143) =     42.20267  eV     1   --> A_2u L_2'      
     e(144 -144) =     42.54718  eV     1   --> A_2u L_2'      
     e(145 -145) =     42.58245  eV     1   --> A_2u L_2'      
     e(146 -147) =     42.82398  eV     2   --> E_g  L_3       
     e(148 -149) =     43.18556  eV     2   --> E_u  L_3'      
     e(150 -150) =     43.29616  eV     1   --> A_2u L_2'      
     e(151 -151) =     43.58635  eV     1   --> A_1g L_1       
     e(152 -153) =     43.69299  eV     2   --> E_u  L_3'      
     e(154 -154) =     44.00455  eV     1   --> A_1g L_1       
     e(155 -155) =     44.36900  eV     1   --> A_1g L_1       
     e(156 -157) =     44.55555  eV     2   --> E_g  L_3       
     e(158 -158) =     44.83451  eV     1   --> A_2g L_2       
     e(159 -159) =     44.97188  eV     1   --> A_2u L_2'      
     e(160 -161) =     45.21268  eV     2   --> E_g  L_3       
     e(162 -162) =     45.46318  eV     1   --> A_1g L_1       
     e(163 -164) =     45.92454  eV     2   --> E_u  L_3'      
     e(165 -165) =     46.90905  eV     1   --> A_1g L_1       
     e(166 -166) =     47.31276  eV     1   --> A_2u L_2'      
     e(167 -168) =     47.80696  eV     2   --> E_g  L_3       
     e(169 -170) =     47.85019  eV     2   --> E_u  L_3'      
     e(171 -171) =     48.14214  eV     1   --> A_2g L_2       
     e(172 -172) =     48.15648  eV     1   --> A_1u L_1'      
     e(173 -174) =     48.47850  eV     2   --> E_u  L_3'      
     e(175 -175) =     48.76093  eV     1   --> A_2u L_2'      
     e(176 -176) =     49.06381  eV     1   --> A_2u L_2'      
     e(177 -178) =     49.22812  eV     2   --> E_g  L_3       
     e(179 -180) =     49.26079  eV     2   --> E_g  L_3       
     e(181 -181) =     49.45240  eV     1   --> A_2u L_2'      
     e(182 -183) =     49.61689  eV     2   --> E_g  L_3       
     e(184 -184) =     49.97700  eV     1   --> A_1g L_1       
     e(185 -186) =     50.34571  eV     2   --> E_u  L_3'      
     e(187 -188) =     50.41201  eV     2   --> E_u  L_3'      
     e(189 -190) =     50.48878  eV     2   --> E_u  L_3'      
     e(191 -192) =     50.53008  eV     2   --> E_g  L_3       
     e(193 -194) =     50.63903  eV     2   --> E_g  L_3       
     e(195 -196) =     51.14064  eV     2   --> E_u  L_3'      
     e(197 -198) =     51.32888  eV     2   --> E_g  L_3       
     e(199 -200) =     52.22558  eV     2   --> E_u  L_3'      

 **************************************************************************

 **************************************************************************

                    xk=(   0.05983,  -0.03454,   0.00563  )

     point group C_s (m)    
     there are  2 classes
     the character table:

       E     s    
A'     1.00  1.00
A''    1.00 -1.00

     the symmetry operations in each class and the name of the first element:

     E        1
                                                                 
     s        2
                                                                 

     Band symmetry, C_s (m)     point group:

     e(  1 -  1) =   -102.78572  eV     1   --> A'             
     e(  2 -  2) =   -101.78047  eV     1   --> A'             
     e(  3 -  3) =    -61.70458  eV     1   --> A'             
     e(  4 -  4) =    -61.67101  eV     1   --> A'             
     e(  5 -  5) =    -61.66223  eV     1   --> A''            
     e(  6 -  6) =    -60.62253  eV     1   --> A'             
     e(  7 -  7) =    -60.61375  eV     1   --> A''            
     e(  8 -  8) =    -60.60179  eV     1   --> A'             
     e(  9 -  9) =     -8.31161  eV     1   --> A'             
     e( 10 - 10) =     -8.23215  eV     1   --> A'             
     e( 11 - 11) =     -7.51369  eV     1   --> A'             
     e( 12 - 12) =     -7.39656  eV     1   --> A'             
     e( 13 - 13) =      0.38916  eV     1   --> A'             
     e( 14 - 14) =      0.97582  eV     1   --> A'             
     e( 15 - 15) =      1.76755  eV     1   --> A'             
     e( 16 - 16) =      1.77573  eV     1   --> A''            
     e( 17 - 17) =      2.48432  eV     1   --> A'             
     e( 18 - 18) =      2.49521  eV     1   --> A''            
     e( 19 - 19) =      3.05879  eV     1   --> A'             
     e( 20 - 20) =      3.24048  eV     1   --> A''            
     e( 21 - 21) =      3.24321  eV     1   --> A'             
     e( 22 - 22) =      3.56099  eV     1   --> A'             
     e( 23 - 23) =      4.02320  eV     1   --> A''            
     e( 24 - 24) =      4.02494  eV     1   --> A'             
     e( 25 - 25) =      4.24614  eV     1   --> A'             
     e( 26 - 26) =      4.27212  eV     1   --> A'             
     e( 27 - 27) =      4.42959  eV     1   --> A''            
     e( 28 - 28) =      4.44014  eV     1   --> A'             
     e( 29 - 29) =      4.47645  eV     1   --> A'             
     e( 30 - 30) =      4.48478  eV     1   --> A''            
     e( 31 - 31) =      5.39827  eV     1   --> A'             
     e( 32 - 32) =      5.41176  eV     1   --> A''            
     e( 33 - 33) =      5.89437  eV     1   --> A'             
     e( 34 - 34) =      5.90594  eV     1   --> A''            
     e( 35 - 35) =      8.62339  eV     1   --> A'             
     e( 36 - 36) =      9.67403  eV     1   --> A'             
     e( 37 - 37) =      9.81397  eV     1   --> A'             
     e( 38 - 38) =      9.83135  eV     1   --> A'             
     e( 39 - 39) =     11.55875  eV     1   --> A'             
     e( 40 - 40) =     11.59480  eV     1   --> A''            
     e( 41 - 41) =     11.71726  eV     1   --> A'             
     e( 42 - 42) =     11.73578  eV     1   --> A''            
     e( 43 - 43) =     12.10967  eV     1   --> A'             
     e( 44 - 44) =     12.60004  eV     1   --> A'             
     e( 45 - 45) =     13.99689  eV     1   --> A'             
     e( 46 - 46) =     14.05605  eV     1   --> A'             
     e( 47 - 47) =     14.09476  eV     1   --> A''            
     e( 48 - 48) =     14.27746  eV     1   --> A'             
     e( 49 - 49) =     14.31856  eV     1   --> A''            
     e( 50 - 50) =     14.40879  eV     1   --> A'             
     e( 51 - 51) =     15.63427  eV     1   --> A'             
     e( 52 - 52) =     15.82275  eV     1   --> A'             
     e( 53 - 53) =     15.87074  eV     1   --> A'             
     e( 54 - 54) =     16.23368  eV     1   --> A''            
     e( 55 - 55) =     16.25074  eV     1   --> A'             
     e( 56 - 56) =     16.55293  eV     1   --> A''            
     e( 57 - 57) =     16.57769  eV     1   --> A'             
     e( 58 - 58) =     16.67993  eV     1   --> A'             
     e( 59 - 59) =     16.87359  eV     1   --> A''            
     e( 60 - 60) =     17.00669  eV     1   --> A'             
     e( 61 - 61) =     17.18588  eV     1   --> A'             
     e( 62 - 62) =     17.60085  eV     1   --> A''            
     e( 63 - 63) =     17.62673  eV     1   --> A'             
     e( 64 - 64) =     19.10752  eV     1   --> A'             
     e( 65 - 65) =     19.30875  eV     1   --> A'             
     e( 66 - 66) =     19.31185  eV     1   --> A'             
     e( 67 - 67) =     19.31853  eV     1   --> A''            
     e( 68 - 68) =     20.64302  eV     1   --> A'             
     e( 69 - 69) =     20.76593  eV     1   --> A''            
     e( 70 - 70) =     21.05931  eV     1   --> A'             
     e( 71 - 71) =     21.06297  eV     1   --> A''            
     e( 72 - 72) =     21.23381  eV     1   --> A'             
     e( 73 - 73) =     21.40265  eV     1   --> A'             
     e( 74 - 74) =     22.60172  eV     1   --> A'             
     e( 75 - 75) =     22.73093  eV     1   --> A''            
     e( 76 - 76) =     23.41810  eV     1   --> A'             
     e( 77 - 77) =     24.44397  eV     1   --> A'             
     e( 78 - 78) =     24.86999  eV     1   --> A'             
     e( 79 - 79) =     24.91753  eV     1   --> A''            
     e( 80 - 80) =     25.25056  eV     1   --> A''            
     e( 81 - 81) =     25.30965  eV     1   --> A'             
     e( 82 - 82) =     25.51124  eV     1   --> A'             
     e( 83 - 83) =     25.85819  eV     1   --> A'             
     e( 84 - 84) =     26.30492  eV     1   --> A'             
     e( 85 - 85) =     26.61721  eV     1   --> A'             
     e( 86 - 86) =     27.37434  eV     1   --> A''            
     e( 87 - 87) =     27.42107  eV     1   --> A'             
     e( 88 - 88) =     27.78406  eV     1   --> A'             
     e( 89 - 89) =     27.85467  eV     1   --> A''            
     e( 90 - 90) =     30.40762  eV     1   --> A'             
     e( 91 - 91) =     30.85861  eV     1   --> A'             
     e( 92 - 92) =     30.91216  eV     1   --> A''            
     e( 93 - 93) =     31.75147  eV     1   --> A'             
     e( 94 - 94) =     32.27946  eV     1   --> A''            
     e( 95 - 95) =     32.30656  eV     1   --> A'             
     e( 96 - 96) =     32.35254  eV     1   --> A''            
     e( 97 - 97) =     32.52640  eV     1   --> A''            
     e( 98 - 98) =     32.83862  eV     1   --> A'             
     e( 99 - 99) =     33.27478  eV     1   --> A'             
     e(100 -100) =     33.44236  eV     1   --> A'             
     e(101 -101) =     33.66518  eV     1   --> A''            
     e(102 -102) =     33.83381  eV     1   --> A''            
     e(103 -103) =     34.03079  eV     1   --> A'             
     e(104 -104) =     34.08066  eV     1   --> A''            
     e(105 -105) =     34.11211  eV     1   --> A'             
     e(106 -106) =     34.20731  eV     1   --> A''            
     e(107 -107) =     34.39794  eV     1   --> A'             
     e(108 -108) =     34.39965  eV     1   --> A''            
     e(109 -109) =     34.48151  eV     1   --> A'             
     e(110 -110) =     34.60688  eV     1   --> A'             
     e(111 -111) =     34.65687  eV     1   --> A''            
     e(112 -112) =     35.57094  eV     1   --> A'             
     e(113 -113) =     35.61584  eV     1   --> A'             
     e(114 -114) =     35.63013  eV     1   --> A''            
     e(115 -115) =     35.67935  eV     1   --> A''            
     e(116 -116) =     36.23512  eV     1   --> A'             
     e(117 -117) =     36.25967  eV     1   --> A'             
     e(118 -118) =     36.29671  eV     1   --> A''            
     e(119 -119) =     36.32174  eV     1   --> A''            
     e(120 -120) =     36.84430  eV     1   --> A'             
     e(121 -121) =     36.89331  eV     1   --> A''            
     e(122 -122) =     36.98253  eV     1   --> A'             
     e(123 -123) =     37.04167  eV     1   --> A''            
     e(124 -124) =     37.94064  eV     1   --> A'             
     e(125 -125) =     38.32636  eV     1   --> A'             
     e(126 -126) =     39.45021  eV     1   --> A'             
     e(127 -127) =     39.48479  eV     1   --> A''            
     e(128 -128) =     40.09180  eV     1   --> A'             
     e(129 -129) =     40.24768  eV     1   --> A''            
     e(130 -130) =     40.39339  eV     1   --> A'             
     e(131 -131) =     40.52700  eV     1   --> A'             
     e(132 -132) =     40.55750  eV     1   --> A'             
     e(133 -133) =     40.85232  eV     1   --> A'             
     e(134 -134) =     41.07876  eV     1   --> A''            
     e(135 -135) =     41.09202  eV     1   --> A'             
     e(136 -136) =     41.11764  eV     1   --> A''            
     e(137 -137) =     41.17426  eV     1   --> A'             
     e(138 -138) =     41.17614  eV     1   --> A''            
     e(139 -139) =     41.29699  eV     1   --> A''            
     e(140 -140) =     41.34797  eV     1   --> A'             
     e(141 -141) =     42.10247  eV     1   --> A''            
     e(142 -142) =     42.18726  eV     1   --> A'             
     e(143 -143) =     42.22307  eV     1   --> A'             
     e(144 -144) =     42.51690  eV     1   --> A'             
     e(145 -145) =     42.53490  eV     1   --> A'             
     e(146 -146) =     42.68004  eV     1   --> A'             
     e(147 -147) =     42.77963  eV     1   --> A''            
     e(148 -148) =     43.10549  eV     1   --> A''            
     e(149 -149) =     43.14325  eV     1   --> A'             
     e(150 -150) =     43.25118  eV     1   --> A'             
     e(151 -151) =     43.43049  eV     1   --> A'             
     e(152 -152) =     43.76173  eV     1   --> A''            
     e(153 -153) =     43.87477  eV     1   --> A'             
     e(154 -154) =     43.94710  eV     1   --> A'             
     e(155 -155) =     44.46781  eV     1   --> A'             
     e(156 -156) =     44.54693  eV     1   --> A'             
     e(157 -157) =     44.56668  eV     1   --> A''            
     e(158 -158) =     44.90055  eV     1   --> A'             
     e(159 -159) =     44.93876  eV     1   --> A''            
     e(160 -160) =     45.28102  eV     1   --> A''            
     e(161 -161) =     45.35989  eV     1   --> A'             
     e(162 -162) =     45.44889  eV     1   --> A'             
     e(163 -163) =     45.83539  eV     1   --> A''            
     e(164 -164) =     45.90365  eV     1   --> A'             
     e(165 -165) =     46.91822  eV     1   --> A'             
     e(166 -166) =     47.24623  eV     1   --> A'             
     e(167 -167) =     47.78018  eV     1   --> A''            
     e(168 -168) =     47.81469  eV     1   --> A''            
     e(169 -169) =     47.82666  eV     1   --> A'             
     e(170 -170) =     47.88596  eV     1   --> A'             
     e(171 -171) =     48.08201  eV     1   --> A''            
     e(172 -172) =     48.16146  eV     1   --> A''            
     e(173 -173) =     48.45552  eV     1   --> A'             
     e(174 -174) =     48.46644  eV     1   --> A''            
     e(175 -175) =     48.62415  eV     1   --> A'             
     e(176 -176) =     48.91296  eV     1   --> A'             
     e(177 -177) =     49.21153  eV     1   --> A''            
     e(178 -178) =     49.26524  eV     1   --> A'             
     e(179 -179) =     49.27369  eV     1   --> A''            
     e(180 -180) =     49.36697  eV     1   --> A'             
     e(181 -181) =     49.41376  eV     1   --> A'             
     e(182 -182) =     49.55662  eV     1   --> A''            
     e(183 -183) =     49.60386  eV     1   --> A'             
     e(184 -184) =     49.97298  eV     1   --> A'             
     e(185 -185) =     50.23489  eV     1   --> A''            
     e(186 -186) =     50.23547  eV     1   --> A'             
     e(187 -187) =     50.34065  eV     1   --> A''            
     e(188 -188) =     50.34526  eV     1   --> A'             
     e(189 -189) =     50.50097  eV     1   --> A''            
     e(190 -190) =     50.52387  eV     1   --> A'             
     e(191 -191) =     50.67233  eV     1   --> A'             
     e(192 -192) =     50.69711  eV     1   --> A''            
     e(193 -193) =     50.80146  eV     1   --> A''            
     e(194 -194) =     50.85928  eV     1   --> A'             
     e(195 -195) =     51.14045  eV     1   --> A'             
     e(196 -196) =     51.17069  eV     1   --> A''            
     e(197 -197) =     51.31857  eV     1   --> A''            
     e(198 -198) =     51.36172  eV     1   --> A'             
     e(199 -199) =     51.95117  eV     1   --> A'             
     e(200 -200) =     52.33454  eV     1   --> A''            

 **************************************************************************

 **************************************************************************

                    xk=(   0.11966,  -0.06909,   0.01126  )

     Band symmetry, C_s (m)     point group:

     e(  1 -  1) =   -102.78594  eV     1   --> A'             
     e(  2 -  2) =   -101.78067  eV     1   --> A'             
     e(  3 -  3) =    -61.70003  eV     1   --> A'             
     e(  4 -  4) =    -61.67374  eV     1   --> A'             
     e(  5 -  5) =    -61.67068  eV     1   --> A''            
     e(  6 -  6) =    -60.62585  eV     1   --> A'             
     e(  7 -  7) =    -60.62183  eV     1   --> A''            
     e(  8 -  8) =    -60.59601  eV     1   --> A'             
     e(  9 -  9) =     -8.30571  eV     1   --> A'             
     e( 10 - 10) =     -8.22637  eV     1   --> A'             
     e( 11 - 11) =     -7.51019  eV     1   --> A'             
     e( 12 - 12) =     -7.39351  eV     1   --> A'             
     e( 13 - 13) =      0.39628  eV     1   --> A'             
     e( 14 - 14) =      0.98129  eV     1   --> A'             
     e( 15 - 15) =      1.76060  eV     1   --> A'             
     e( 16 - 16) =      1.77155  eV     1   --> A''            
     e( 17 - 17) =      2.45925  eV     1   --> A'             
     e( 18 - 18) =      2.49128  eV     1   --> A''            
     e( 19 - 19) =      3.08262  eV     1   --> A'             
     e( 20 - 20) =      3.22815  eV     1   --> A''            
     e( 21 - 21) =      3.23190  eV     1   --> A'             
     e( 22 - 22) =      3.54846  eV     1   --> A'             
     e( 23 - 23) =      3.99462  eV     1   --> A'             
     e( 24 - 24) =      3.99808  eV     1   --> A''            
     e( 25 - 25) =      4.22694  eV     1   --> A'             
     e( 26 - 26) =      4.25166  eV     1   --> A'             
     e( 27 - 27) =      4.42778  eV     1   --> A'             
     e( 28 - 28) =      4.43197  eV     1   --> A''            
     e( 29 - 29) =      4.48467  eV     1   --> A''            
     e( 30 - 30) =      4.48650  eV     1   --> A'             
     e( 31 - 31) =      5.36118  eV     1   --> A'             
     e( 32 - 32) =      5.40145  eV     1   --> A''            
     e( 33 - 33) =      5.86014  eV     1   --> A'             
     e( 34 - 34) =      5.89448  eV     1   --> A''            
     e( 35 - 35) =      8.66894  eV     1   --> A'             
     e( 36 - 36) =      9.72520  eV     1   --> A'             
     e( 37 - 37) =      9.85886  eV     1   --> A'             
     e( 38 - 38) =      9.86650  eV     1   --> A'             
     e( 39 - 39) =     11.48517  eV     1   --> A'             
     e( 40 - 40) =     11.61913  eV     1   --> A''            
     e( 41 - 41) =     11.68699  eV     1   --> A'             
     e( 42 - 42) =     11.75677  eV     1   --> A''            
     e( 43 - 43) =     12.09171  eV     1   --> A'             
     e( 44 - 44) =     12.65266  eV     1   --> A'             
     e( 45 - 45) =     13.96225  eV     1   --> A'             
     e( 46 - 46) =     13.98690  eV     1   --> A'             
     e( 47 - 47) =     14.10756  eV     1   --> A''            
     e( 48 - 48) =     14.18409  eV     1   --> A'             
     e( 49 - 49) =     14.33856  eV     1   --> A''            
     e( 50 - 50) =     14.45391  eV     1   --> A'             
     e( 51 - 51) =     15.75396  eV     1   --> A'             
     e( 52 - 52) =     15.78625  eV     1   --> A'             
     e( 53 - 53) =     15.92575  eV     1   --> A'             
     e( 54 - 54) =     16.08801  eV     1   --> A''            
     e( 55 - 55) =     16.23225  eV     1   --> A'             
     e( 56 - 56) =     16.39938  eV     1   --> A'             
     e( 57 - 57) =     16.70806  eV     1   --> A''            
     e( 58 - 58) =     16.78004  eV     1   --> A''            
     e( 59 - 59) =     16.78785  eV     1   --> A'             
     e( 60 - 60) =     16.88986  eV     1   --> A'             
     e( 61 - 61) =     17.37543  eV     1   --> A'             
     e( 62 - 62) =     17.72027  eV     1   --> A''            
     e( 63 - 63) =     17.81755  eV     1   --> A'             
     e( 64 - 64) =     19.13503  eV     1   --> A'             
     e( 65 - 65) =     19.25868  eV     1   --> A'             
     e( 66 - 66) =     19.29741  eV     1   --> A''            
     e( 67 - 67) =     19.36885  eV     1   --> A'             
     e( 68 - 68) =     20.48064  eV     1   --> A'             
     e( 69 - 69) =     20.81332  eV     1   --> A''            
     e( 70 - 70) =     20.99282  eV     1   --> A'             
     e( 71 - 71) =     21.00993  eV     1   --> A''            
     e( 72 - 72) =     21.46007  eV     1   --> A'             
     e( 73 - 73) =     21.51319  eV     1   --> A'             
     e( 74 - 74) =     22.40963  eV     1   --> A'             
     e( 75 - 75) =     22.81196  eV     1   --> A''            
     e( 76 - 76) =     23.65353  eV     1   --> A'             
     e( 77 - 77) =     24.24032  eV     1   --> A'             
     e( 78 - 78) =     24.77697  eV     1   --> A''            
     e( 79 - 79) =     24.78199  eV     1   --> A'             
     e( 80 - 80) =     25.40857  eV     1   --> A''            
     e( 81 - 81) =     25.47439  eV     1   --> A'             
     e( 82 - 82) =     25.49178  eV     1   --> A'             
     e( 83 - 83) =     25.86703  eV     1   --> A'             
     e( 84 - 84) =     26.40545  eV     1   --> A'             
     e( 85 - 85) =     26.75518  eV     1   --> A'             
     e( 86 - 86) =     27.17668  eV     1   --> A''            
     e( 87 - 87) =     27.27444  eV     1   --> A'             
     e( 88 - 88) =     27.89144  eV     1   --> A'             
     e( 89 - 89) =     28.07356  eV     1   --> A''            
     e( 90 - 90) =     30.44791  eV     1   --> A'             
     e( 91 - 91) =     30.69830  eV     1   --> A'             
     e( 92 - 92) =     30.88214  eV     1   --> A''            
     e( 93 - 93) =     31.81949  eV     1   --> A'             
     e( 94 - 94) =     32.09108  eV     1   --> A''            
     e( 95 - 95) =     32.10714  eV     1   --> A'             
     e( 96 - 96) =     32.17067  eV     1   --> A''            
     e( 97 - 97) =     32.56711  eV     1   --> A''            
     e( 98 - 98) =     33.02639  eV     1   --> A'             
     e( 99 - 99) =     33.35933  eV     1   --> A'             
     e(100 -100) =     33.38800  eV     1   --> A'             
     e(101 -101) =     33.42423  eV     1   --> A''            
     e(102 -102) =     33.64414  eV     1   --> A''            
     e(103 -103) =     33.73323  eV     1   --> A'             
     e(104 -104) =     33.88046  eV     1   --> A'             
     e(105 -105) =     33.93748  eV     1   --> A''            
     e(106 -106) =     34.06080  eV     1   --> A''            
     e(107 -107) =     34.20097  eV     1   --> A'             
     e(108 -108) =     34.22461  eV     1   --> A''            
     e(109 -109) =     34.50597  eV     1   --> A'             
     e(110 -110) =     34.72343  eV     1   --> A'             
     e(111 -111) =     34.79820  eV     1   --> A''            
     e(112 -112) =     35.77489  eV     1   --> A'             
     e(113 -113) =     35.81513  eV     1   --> A'             
     e(114 -114) =     35.83925  eV     1   --> A'             
     e(115 -115) =     35.97849  eV     1   --> A'             
     e(116 -116) =     36.01350  eV     1   --> A''            
     e(117 -117) =     36.02610  eV     1   --> A''            
     e(118 -118) =     36.06769  eV     1   --> A''            
     e(119 -119) =     36.18833  eV     1   --> A''            
     e(120 -120) =     37.07514  eV     1   --> A'             
     e(121 -121) =     37.25397  eV     1   --> A'             
     e(122 -122) =     37.28844  eV     1   --> A''            
     e(123 -123) =     37.48144  eV     1   --> A''            
     e(124 -124) =     38.09472  eV     1   --> A'             
     e(125 -125) =     38.40701  eV     1   --> A'             
     e(126 -126) =     39.34670  eV     1   --> A'             
     e(127 -127) =     39.48064  eV     1   --> A''            
     e(128 -128) =     39.76022  eV     1   --> A''            
     e(129 -129) =     40.13257  eV     1   --> A'             
     e(130 -130) =     40.14959  eV     1   --> A'             
     e(131 -131) =     40.50096  eV     1   --> A'             
     e(132 -132) =     40.54691  eV     1   --> A'             
     e(133 -133) =     40.81825  eV     1   --> A'             
     e(134 -134) =     40.86020  eV     1   --> A''            
     e(135 -135) =     41.13609  eV     1   --> A'             
     e(136 -136) =     41.15210  eV     1   --> A''            
     e(137 -137) =     41.17862  eV     1   --> A'             
     e(138 -138) =     41.21341  eV     1   --> A''            
     e(139 -139) =     41.31945  eV     1   --> A''            
     e(140 -140) =     41.40533  eV     1   --> A'             
     e(141 -141) =     42.11499  eV     1   --> A'             
     e(142 -142) =     42.24513  eV     1   --> A'             
     e(143 -143) =     42.40674  eV     1   --> A''            
     e(144 -144) =     42.45634  eV     1   --> A'             
     e(145 -145) =     42.58244  eV     1   --> A'             
     e(146 -146) =     42.60073  eV     1   --> A'             
     e(147 -147) =     42.64727  eV     1   --> A''            
     e(148 -148) =     42.86825  eV     1   --> A''            
     e(149 -149) =     43.08893  eV     1   --> A'             
     e(150 -150) =     43.12063  eV     1   --> A'             
     e(151 -151) =     43.33319  eV     1   --> A'             
     e(152 -152) =     43.78896  eV     1   --> A'             
     e(153 -153) =     43.85251  eV     1   --> A'             
     e(154 -154) =     44.04566  eV     1   --> A''            
     e(155 -155) =     44.52188  eV     1   --> A'             
     e(156 -156) =     44.59116  eV     1   --> A''            
     e(157 -157) =     44.76036  eV     1   --> A'             
     e(158 -158) =     44.85248  eV     1   --> A'             
     e(159 -159) =     45.04400  eV     1   --> A''            
     e(160 -160) =     45.38992  eV     1   --> A'             
     e(161 -161) =     45.57174  eV     1   --> A''            
     e(162 -162) =     45.61997  eV     1   --> A''            
     e(163 -163) =     45.66980  eV     1   --> A'             
     e(164 -164) =     45.87834  eV     1   --> A'             
     e(165 -165) =     46.94409  eV     1   --> A'             
     e(166 -166) =     47.11873  eV     1   --> A'             
     e(167 -167) =     47.59928  eV     1   --> A''            
     e(168 -168) =     47.69004  eV     1   --> A''            
     e(169 -169) =     47.71161  eV     1   --> A'             
     e(170 -170) =     47.89408  eV     1   --> A'             
     e(171 -171) =     47.90126  eV     1   --> A''            
     e(172 -172) =     48.25469  eV     1   --> A''            
     e(173 -173) =     48.43942  eV     1   --> A'             
     e(174 -174) =     48.44844  eV     1   --> A'             
     e(175 -175) =     48.50508  eV     1   --> A''            
     e(176 -176) =     48.82347  eV     1   --> A'             
     e(177 -177) =     49.11502  eV     1   --> A''            
     e(178 -178) =     49.23374  eV     1   --> A'             
     e(179 -179) =     49.25001  eV     1   --> A''            
     e(180 -180) =     49.30333  eV     1   --> A'             
     e(181 -181) =     49.42982  eV     1   --> A'             
     e(182 -182) =     49.51086  eV     1   --> A''            
     e(183 -183) =     49.54864  eV     1   --> A'             
     e(184 -184) =     49.99349  eV     1   --> A'             
     e(185 -185) =     50.04495  eV     1   --> A''            
     e(186 -186) =     50.14337  eV     1   --> A'             
     e(187 -187) =     50.29393  eV     1   --> A'             
     e(188 -188) =     50.32186  eV     1   --> A''            
     e(189 -189) =     50.57784  eV     1   --> A''            
     e(190 -190) =     50.67746  eV     1   --> A'             
     e(191 -191) =     50.89148  eV     1   --> A''            
     e(192 -192) =     50.91540  eV     1   --> A'             
     e(193 -193) =     51.00891  eV     1   --> A'             
     e(194 -194) =     51.05615  eV     1   --> A''            
     e(195 -195) =     51.28885  eV     1   --> A'             
     e(196 -196) =     51.34714  eV     1   --> A''            
     e(197 -197) =     51.35230  eV     1   --> A''            
     e(198 -198) =     51.47154  eV     1   --> A'             
     e(199 -199) =     51.81448  eV     1   --> A'             
     e(200 -200) =     52.61058  eV     1   --> A''            

 **************************************************************************

 **************************************************************************

                    xk=(   0.17949,  -0.10363,   0.01689  )

     Band symmetry, C_s (m)     point group:

     e(  1 -  1) =   -102.78664  eV     1   --> A'             
     e(  2 -  2) =   -101.78134  eV     1   --> A'             
     e(  3 -  3) =    -61.70431  eV     1   --> A'             
     e(  4 -  4) =    -61.68556  eV     1   --> A'             
     e(  5 -  5) =    -61.67482  eV     1   --> A''            
     e(  6 -  6) =    -60.63871  eV     1   --> A'             
     e(  7 -  7) =    -60.62672  eV     1   --> A''            
     e(  8 -  8) =    -60.60020  eV     1   --> A'             
     e(  9 -  9) =     -8.29589  eV     1   --> A'             
     e( 10 - 10) =     -8.21698  eV     1   --> A'             
     e( 11 - 11) =     -7.50446  eV     1   --> A'             
     e( 12 - 12) =     -7.38851  eV     1   --> A'             
     e( 13 - 13) =      0.40840  eV     1   --> A'             
     e( 14 - 14) =      0.98784  eV     1   --> A'             
     e( 15 - 15) =      1.73963  eV     1   --> A'             
     e( 16 - 16) =      1.76885  eV     1   --> A''            
     e( 17 - 17) =      2.41727  eV     1   --> A'             
     e( 18 - 18) =      2.48742  eV     1   --> A''            
     e( 19 - 19) =      3.11701  eV     1   --> A'             
     e( 20 - 20) =      3.19002  eV     1   --> A'             
     e( 21 - 21) =      3.22335  eV     1   --> A''            
     e( 22 - 22) =      3.52144  eV     1   --> A'             
     e( 23 - 23) =      3.91705  eV     1   --> A'             
     e( 24 - 24) =      3.97082  eV     1   --> A''            
     e( 25 - 25) =      4.16839  eV     1   --> A'             
     e( 26 - 26) =      4.25819  eV     1   --> A'             
     e( 27 - 27) =      4.37497  eV     1   --> A'             
     e( 28 - 28) =      4.42991  eV     1   --> A''            
     e( 29 - 29) =      4.48853  eV     1   --> A''            
     e( 30 - 30) =      4.50593  eV     1   --> A'             
     e( 31 - 31) =      5.29797  eV     1   --> A'             
     e( 32 - 32) =      5.38843  eV     1   --> A''            
     e( 33 - 33) =      5.79978  eV     1   --> A'             
     e( 34 - 34) =      5.87809  eV     1   --> A''            
     e( 35 - 35) =      8.74159  eV     1   --> A'             
     e( 36 - 36) =      9.80575  eV     1   --> A'             
     e( 37 - 37) =      9.89854  eV     1   --> A'             
     e( 38 - 38) =      9.94785  eV     1   --> A'             
     e( 39 - 39) =     11.37929  eV     1   --> A'             
     e( 40 - 40) =     11.64607  eV     1   --> A'             
     e( 41 - 41) =     11.66015  eV     1   --> A''            
     e( 42 - 42) =     11.79123  eV     1   --> A''            
     e( 43 - 43) =     12.06332  eV     1   --> A'             
     e( 44 - 44) =     12.72617  eV     1   --> A'             
     e( 45 - 45) =     13.82915  eV     1   --> A'             
     e( 46 - 46) =     13.95720  eV     1   --> A'             
     e( 47 - 47) =     14.05397  eV     1   --> A'             
     e( 48 - 48) =     14.13129  eV     1   --> A''            
     e( 49 - 49) =     14.37234  eV     1   --> A''            
     e( 50 - 50) =     14.52252  eV     1   --> A'             
     e( 51 - 51) =     15.67316  eV     1   --> A'             
     e( 52 - 52) =     15.92317  eV     1   --> A'             
     e( 53 - 53) =     15.94954  eV     1   --> A''            
     e( 54 - 54) =     16.02941  eV     1   --> A'             
     e( 55 - 55) =     16.12865  eV     1   --> A'             
     e( 56 - 56) =     16.34455  eV     1   --> A'             
     e( 57 - 57) =     16.64830  eV     1   --> A''            
     e( 58 - 58) =     16.75610  eV     1   --> A'             
     e( 59 - 59) =     16.88836  eV     1   --> A''            
     e( 60 - 60) =     16.99799  eV     1   --> A'             
     e( 61 - 61) =     17.51097  eV     1   --> A'             
     e( 62 - 62) =     17.87050  eV     1   --> A''            
     e( 63 - 63) =     18.07067  eV     1   --> A'             
     e( 64 - 64) =     19.17886  eV     1   --> A'             
     e( 65 - 65) =     19.18272  eV     1   --> A'             
     e( 66 - 66) =     19.26982  eV     1   --> A''            
     e( 67 - 67) =     19.46128  eV     1   --> A'             
     e( 68 - 68) =     20.34793  eV     1   --> A'             
     e( 69 - 69) =     20.88860  eV     1   --> A'             
     e( 70 - 70) =     20.88918  eV     1   --> A''            
     e( 71 - 71) =     20.93230  eV     1   --> A''            
     e( 72 - 72) =     21.61846  eV     1   --> A'             
     e( 73 - 73) =     21.77286  eV     1   --> A'             
     e( 74 - 74) =     22.20755  eV     1   --> A'             
     e( 75 - 75) =     22.93519  eV     1   --> A''            
     e( 76 - 76) =     23.78623  eV     1   --> A'             
     e( 77 - 77) =     24.08519  eV     1   --> A'             
     e( 78 - 78) =     24.63924  eV     1   --> A''            
     e( 79 - 79) =     24.76586  eV     1   --> A'             
     e( 80 - 80) =     25.46500  eV     1   --> A'             
     e( 81 - 81) =     25.57619  eV     1   --> A''            
     e( 82 - 82) =     25.59463  eV     1   --> A'             
     e( 83 - 83) =     25.86612  eV     1   --> A'             
     e( 84 - 84) =     26.53865  eV     1   --> A'             
     e( 85 - 85) =     26.98254  eV     1   --> A''            
     e( 86 - 86) =     26.98957  eV     1   --> A'             
     e( 87 - 87) =     27.13493  eV     1   --> A'             
     e( 88 - 88) =     27.97607  eV     1   --> A'             
     e( 89 - 89) =     28.30583  eV     1   --> A''            
     e( 90 - 90) =     30.35073  eV     1   --> A'             
     e( 91 - 91) =     30.62980  eV     1   --> A'             
     e( 92 - 92) =     30.83440  eV     1   --> A''            
     e( 93 - 93) =     31.79816  eV     1   --> A''            
     e( 94 - 94) =     31.87877  eV     1   --> A''            
     e( 95 - 95) =     31.91497  eV     1   --> A'             
     e( 96 - 96) =     31.94326  eV     1   --> A'             
     e( 97 - 97) =     32.62866  eV     1   --> A''            
     e( 98 - 98) =     32.95919  eV     1   --> A'             
     e( 99 - 99) =     33.08601  eV     1   --> A''            
     e(100 -100) =     33.22784  eV     1   --> A'             
     e(101 -101) =     33.35231  eV     1   --> A''            
     e(102 -102) =     33.41754  eV     1   --> A'             
     e(103 -103) =     33.62300  eV     1   --> A'             
     e(104 -104) =     33.65150  eV     1   --> A'             
     e(105 -105) =     33.80563  eV     1   --> A''            
     e(106 -106) =     33.89520  eV     1   --> A''            
     e(107 -107) =     34.05039  eV     1   --> A'             
     e(108 -108) =     34.09405  eV     1   --> A''            
     e(109 -109) =     34.45439  eV     1   --> A'             
     e(110 -110) =     34.85620  eV     1   --> A'             
     e(111 -111) =     34.94199  eV     1   --> A''            
     e(112 -112) =     35.38790  eV     1   --> A'             
     e(113 -113) =     35.74721  eV     1   --> A'             
     e(114 -114) =     35.91124  eV     1   --> A''            
     e(115 -115) =     35.93430  eV     1   --> A'             
     e(116 -116) =     36.11899  eV     1   --> A'             
     e(117 -117) =     36.13784  eV     1   --> A''            
     e(118 -118) =     36.45083  eV     1   --> A''            
     e(119 -119) =     36.50444  eV     1   --> A''            
     e(120 -120) =     37.24280  eV     1   --> A'             
     e(121 -121) =     37.47417  eV     1   --> A'             
     e(122 -122) =     37.72469  eV     1   --> A''            
     e(123 -123) =     37.96204  eV     1   --> A''            
     e(124 -124) =     38.33907  eV     1   --> A'             
     e(125 -125) =     38.54052  eV     1   --> A'             
     e(126 -126) =     39.19207  eV     1   --> A'             
     e(127 -127) =     39.24556  eV     1   --> A''            
     e(128 -128) =     39.48357  eV     1   --> A''            
     e(129 -129) =     39.65629  eV     1   --> A'             
     e(130 -130) =     40.19006  eV     1   --> A'             
     e(131 -131) =     40.45851  eV     1   --> A'             
     e(132 -132) =     40.48725  eV     1   --> A''            
     e(133 -133) =     40.76924  eV     1   --> A'             
     e(134 -134) =     40.78129  eV     1   --> A'             
     e(135 -135) =     41.11452  eV     1   --> A''            
     e(136 -136) =     41.20807  eV     1   --> A'             
     e(137 -137) =     41.21246  eV     1   --> A''            
     e(138 -138) =     41.21560  eV     1   --> A'             
     e(139 -139) =     41.40423  eV     1   --> A''            
     e(140 -140) =     41.50755  eV     1   --> A'             
     e(141 -141) =     41.64924  eV     1   --> A'             
     e(142 -142) =     42.00350  eV     1   --> A'             
     e(143 -143) =     42.28160  eV     1   --> A''            
     e(144 -144) =     42.39693  eV     1   --> A'             
     e(145 -145) =     42.66537  eV     1   --> A'             
     e(146 -146) =     42.77597  eV     1   --> A''            
     e(147 -147) =     42.82478  eV     1   --> A''            
     e(148 -148) =     42.89243  eV     1   --> A'             
     e(149 -149) =     42.96661  eV     1   --> A'             
     e(150 -150) =     43.02162  eV     1   --> A'             
     e(151 -151) =     43.32229  eV     1   --> A'             
     e(152 -152) =     43.57650  eV     1   --> A'             
     e(153 -153) =     43.66325  eV     1   --> A'             
     e(154 -154) =     44.44452  eV     1   --> A''            
     e(155 -155) =     44.47766  eV     1   --> A'             
     e(156 -156) =     44.60248  eV     1   --> A''            
     e(157 -157) =     44.63474  eV     1   --> A'             
     e(158 -158) =     45.09124  eV     1   --> A''            
     e(159 -159) =     45.27136  eV     1   --> A'             
     e(160 -160) =     45.32763  eV     1   --> A'             
     e(161 -161) =     45.37915  eV     1   --> A''            
     e(162 -162) =     45.89821  eV     1   --> A'             
     e(163 -163) =     46.00601  eV     1   --> A''            
     e(164 -164) =     46.04186  eV     1   --> A'             
     e(165 -165) =     46.97914  eV     1   --> A'             
     e(166 -166) =     46.98150  eV     1   --> A'             
     e(167 -167) =     47.35759  eV     1   --> A''            
     e(168 -168) =     47.41371  eV     1   --> A''            
     e(169 -169) =     47.46067  eV     1   --> A'             
     e(170 -170) =     47.57646  eV     1   --> A'             
     e(171 -171) =     47.64357  eV     1   --> A''            
     e(172 -172) =     48.27305  eV     1   --> A''            
     e(173 -173) =     48.36550  eV     1   --> A'             
     e(174 -174) =     48.57348  eV     1   --> A'             
     e(175 -175) =     48.71142  eV     1   --> A''            
     e(176 -176) =     48.85868  eV     1   --> A'             
     e(177 -177) =     48.99949  eV     1   --> A''            
     e(178 -178) =     49.09423  eV     1   --> A''            
     e(179 -179) =     49.09795  eV     1   --> A'             
     e(180 -180) =     49.21901  eV     1   --> A'             
     e(181 -181) =     49.34686  eV     1   --> A'             
     e(182 -182) =     49.50016  eV     1   --> A''            
     e(183 -183) =     49.57280  eV     1   --> A'             
     e(184 -184) =     49.93973  eV     1   --> A''            
     e(185 -185) =     49.95196  eV     1   --> A'             
     e(186 -186) =     50.18171  eV     1   --> A'             
     e(187 -187) =     50.22245  eV     1   --> A'             
     e(188 -188) =     50.30696  eV     1   --> A''            
     e(189 -189) =     50.69532  eV     1   --> A''            
     e(190 -190) =     50.80199  eV     1   --> A'             
     e(191 -191) =     50.92489  eV     1   --> A''            
     e(192 -192) =     51.00382  eV     1   --> A'             
     e(193 -193) =     51.20626  eV     1   --> A'             
     e(194 -194) =     51.48248  eV     1   --> A''            
     e(195 -195) =     51.48892  eV     1   --> A''            
     e(196 -196) =     51.57685  eV     1   --> A'             
     e(197 -197) =     51.58992  eV     1   --> A'             
     e(198 -198) =     51.61343  eV     1   --> A''            
     e(199 -199) =     52.04531  eV     1   --> A'             
     e(200 -200) =     52.57582  eV     1   --> A''            

 **************************************************************************

 **************************************************************************

                    xk=(   0.23932,  -0.13817,   0.02252  )

     Band symmetry, C_s (m)     point group:

     e(  1 -  1) =   -102.78689  eV     1   --> A'             
     e(  2 -  2) =   -101.78159  eV     1   --> A'             
     e(  3 -  3) =    -61.70595  eV     1   --> A'             
     e(  4 -  4) =    -61.68900  eV     1   --> A'             
     e(  5 -  5) =    -61.67602  eV     1   --> A''            
     e(  6 -  6) =    -60.64176  eV     1   --> A'             
     e(  7 -  7) =    -60.62815  eV     1   --> A''            
     e(  8 -  8) =    -60.60544  eV     1   --> A'             
     e(  9 -  9) =     -8.28214  eV     1   --> A'             
     e( 10 - 10) =     -8.20369  eV     1   --> A'             
     e( 11 - 11) =     -7.49674  eV     1   --> A'             
     e( 12 - 12) =     -7.38145  eV     1   --> A'             
     e( 13 - 13) =      0.42556  eV     1   --> A'             
     e( 14 - 14) =      0.99715  eV     1   --> A'             
     e( 15 - 15) =      1.71540  eV     1   --> A'             
     e( 16 - 16) =      1.77097  eV     1   --> A''            
     e( 17 - 17) =      2.36800  eV     1   --> A'             
     e( 18 - 18) =      2.48790  eV     1   --> A''            
     e( 19 - 19) =      3.14384  eV     1   --> A'             
     e( 20 - 20) =      3.18610  eV     1   --> A'             
     e( 21 - 21) =      3.20116  eV     1   --> A''            
     e( 22 - 22) =      3.49845  eV     1   --> A'             
     e( 23 - 23) =      3.82993  eV     1   --> A'             
     e( 24 - 24) =      3.92319  eV     1   --> A''            
     e( 25 - 25) =      4.12816  eV     1   --> A'             
     e( 26 - 26) =      4.26300  eV     1   --> A'             
     e( 27 - 27) =      4.31296  eV     1   --> A'             
     e( 28 - 28) =      4.42018  eV     1   --> A''            
     e( 29 - 29) =      4.49438  eV     1   --> A''            
     e( 30 - 30) =      4.52695  eV     1   --> A'             
     e( 31 - 31) =      5.22093  eV     1   --> A'             
     e( 32 - 32) =      5.37598  eV     1   --> A''            
     e( 33 - 33) =      5.72717  eV     1   --> A'             
     e( 34 - 34) =      5.86467  eV     1   --> A''            
     e( 35 - 35) =      8.83727  eV     1   --> A'             
     e( 36 - 36) =      9.90959  eV     1   --> A'             
     e( 37 - 37) =      9.94294  eV     1   --> A'             
     e( 38 - 38) =     10.05538  eV     1   --> A'             
     e( 39 - 39) =     11.26056  eV     1   --> A'             
     e( 40 - 40) =     11.60315  eV     1   --> A'             
     e( 41 - 41) =     11.71620  eV     1   --> A''            
     e( 42 - 42) =     11.83873  eV     1   --> A''            
     e( 43 - 43) =     12.02736  eV     1   --> A'             
     e( 44 - 44) =     12.81204  eV     1   --> A'             
     e( 45 - 45) =     13.68487  eV     1   --> A'             
     e( 46 - 46) =     13.86524  eV     1   --> A'             
     e( 47 - 47) =     13.94672  eV     1   --> A'             
     e( 48 - 48) =     14.16135  eV     1   --> A''            
     e( 49 - 49) =     14.41684  eV     1   --> A''            
     e( 50 - 50) =     14.60423  eV     1   --> A'             
     e( 51 - 51) =     15.55681  eV     1   --> A'             
     e( 52 - 52) =     15.82294  eV     1   --> A''            
     e( 53 - 53) =     15.85241  eV     1   --> A'             
     e( 54 - 54) =     16.12815  eV     1   --> A'             
     e( 55 - 55) =     16.16596  eV     1   --> A'             
     e( 56 - 56) =     16.52861  eV     1   --> A'             
     e( 57 - 57) =     16.53025  eV     1   --> A''            
     e( 58 - 58) =     16.63145  eV     1   --> A'             
     e( 59 - 59) =     17.05774  eV     1   --> A''            
     e( 60 - 60) =     17.20691  eV     1   --> A'             
     e( 61 - 61) =     17.61216  eV     1   --> A'             
     e( 62 - 62) =     18.02722  eV     1   --> A''            
     e( 63 - 63) =     18.35089  eV     1   --> A'             
     e( 64 - 64) =     19.08668  eV     1   --> A'             
     e( 65 - 65) =     19.24521  eV     1   --> A'             
     e( 66 - 66) =     19.24633  eV     1   --> A''            
     e( 67 - 67) =     19.58416  eV     1   --> A'             
     e( 68 - 68) =     20.26594  eV     1   --> A'             
     e( 69 - 69) =     20.75724  eV     1   --> A'             
     e( 70 - 70) =     20.84133  eV     1   --> A''            
     e( 71 - 71) =     20.98604  eV     1   --> A''            
     e( 72 - 72) =     21.79949  eV     1   --> A'             
     e( 73 - 73) =     22.02024  eV     1   --> A'             
     e( 74 - 74) =     22.06986  eV     1   --> A'             
     e( 75 - 75) =     23.09122  eV     1   --> A''            
     e( 76 - 76) =     23.51753  eV     1   --> A'             
     e( 77 - 77) =     24.29947  eV     1   --> A'             
     e( 78 - 78) =     24.50678  eV     1   --> A''            
     e( 79 - 79) =     24.77865  eV     1   --> A'             
     e( 80 - 80) =     25.43514  eV     1   --> A'             
     e( 81 - 81) =     25.70843  eV     1   --> A'             
     e( 82 - 82) =     25.75011  eV     1   --> A''            
     e( 83 - 83) =     25.83786  eV     1   --> A'             
     e( 84 - 84) =     26.68003  eV     1   --> A'             
     e( 85 - 85) =     26.79538  eV     1   --> A''            
     e( 86 - 86) =     27.03350  eV     1   --> A'             
     e( 87 - 87) =     27.30162  eV     1   --> A'             
     e( 88 - 88) =     28.03273  eV     1   --> A'             
     e( 89 - 89) =     28.54503  eV     1   --> A''            
     e( 90 - 90) =     30.06197  eV     1   --> A'             
     e( 91 - 91) =     30.72344  eV     1   --> A'             
     e( 92 - 92) =     30.76982  eV     1   --> A''            
     e( 93 - 93) =     31.42988  eV     1   --> A''            
     e( 94 - 94) =     31.50384  eV     1   --> A''            
     e( 95 - 95) =     31.80598  eV     1   --> A'             
     e( 96 - 96) =     32.02471  eV     1   --> A'             
     e( 97 - 97) =     32.68546  eV     1   --> A''            
     e( 98 - 98) =     32.70525  eV     1   --> A''            
     e( 99 - 99) =     32.77058  eV     1   --> A'             
     e(100 -100) =     32.83479  eV     1   --> A'             
     e(101 -101) =     32.98934  eV     1   --> A''            
     e(102 -102) =     33.26142  eV     1   --> A'             
     e(103 -103) =     33.35037  eV     1   --> A'             
     e(104 -104) =     33.66025  eV     1   --> A''            
     e(105 -105) =     33.77834  eV     1   --> A''            
     e(106 -106) =     33.97042  eV     1   --> A'             
     e(107 -107) =     34.02331  eV     1   --> A''            
     e(108 -108) =     34.02523  eV     1   --> A'             
     e(109 -109) =     34.32952  eV     1   --> A'             
     e(110 -110) =     34.95061  eV     1   --> A'             
     e(111 -111) =     34.97151  eV     1   --> A'             
     e(112 -112) =     35.06660  eV     1   --> A''            
     e(113 -113) =     35.61843  eV     1   --> A'             
     e(114 -114) =     35.81548  eV     1   --> A''            
     e(115 -115) =     36.04610  eV     1   --> A'             
     e(116 -116) =     36.16874  eV     1   --> A''            
     e(117 -117) =     36.40830  eV     1   --> A'             
     e(118 -118) =     36.91078  eV     1   --> A''            
     e(119 -119) =     37.02507  eV     1   --> A''            
     e(120 -120) =     37.34542  eV     1   --> A'             
     e(121 -121) =     37.64633  eV     1   --> A'             
     e(122 -122) =     38.17255  eV     1   --> A''            
     e(123 -123) =     38.46111  eV     1   --> A''            
     e(124 -124) =     38.63418  eV     1   --> A'             
     e(125 -125) =     38.72647  eV     1   --> A''            
     e(126 -126) =     38.72989  eV     1   --> A'             
     e(127 -127) =     39.01648  eV     1   --> A'             
     e(128 -128) =     39.13712  eV     1   --> A'             
     e(129 -129) =     39.51310  eV     1   --> A''            
     e(130 -130) =     40.06659  eV     1   --> A''            
     e(131 -131) =     40.25990  eV     1   --> A'             
     e(132 -132) =     40.40887  eV     1   --> A'             
     e(133 -133) =     40.72215  eV     1   --> A'             
     e(134 -134) =     40.97860  eV     1   --> A''            
     e(135 -135) =     41.01122  eV     1   --> A'             
     e(136 -136) =     41.13106  eV     1   --> A'             
     e(137 -137) =     41.23741  eV     1   --> A'             
     e(138 -138) =     41.26515  eV     1   --> A'             
     e(139 -139) =     41.29588  eV     1   --> A''            
     e(140 -140) =     41.45750  eV     1   --> A''            
     e(141 -141) =     41.67421  eV     1   --> A'             
     e(142 -142) =     41.79371  eV     1   --> A'             
     e(143 -143) =     41.83231  eV     1   --> A''            
     e(144 -144) =     42.29044  eV     1   --> A'             
     e(145 -145) =     42.64875  eV     1   --> A'             
     e(146 -146) =     42.72381  eV     1   --> A'             
     e(147 -147) =     42.76008  eV     1   --> A''            
     e(148 -148) =     42.93536  eV     1   --> A'             
     e(149 -149) =     43.02805  eV     1   --> A'             
     e(150 -150) =     43.25716  eV     1   --> A''            
     e(151 -151) =     43.32807  eV     1   --> A'             
     e(152 -152) =     43.49332  eV     1   --> A'             
     e(153 -153) =     43.53273  eV     1   --> A'             
     e(154 -154) =     44.43776  eV     1   --> A'             
     e(155 -155) =     44.50373  eV     1   --> A'             
     e(156 -156) =     44.53920  eV     1   --> A''            
     e(157 -157) =     44.82983  eV     1   --> A''            
     e(158 -158) =     45.12551  eV     1   --> A'             
     e(159 -159) =     45.18472  eV     1   --> A''            
     e(160 -160) =     45.22054  eV     1   --> A''            
     e(161 -161) =     45.82715  eV     1   --> A'             
     e(162 -162) =     45.95893  eV     1   --> A'             
     e(163 -163) =     46.41792  eV     1   --> A'             
     e(164 -164) =     46.46791  eV     1   --> A''            
     e(165 -165) =     46.84926  eV     1   --> A'             
     e(166 -166) =     46.98721  eV     1   --> A'             
     e(167 -167) =     47.07200  eV     1   --> A''            
     e(168 -168) =     47.09196  eV     1   --> A''            
     e(169 -169) =     47.14949  eV     1   --> A'             
     e(170 -170) =     47.17951  eV     1   --> A'             
     e(171 -171) =     47.35515  eV     1   --> A''            
     e(172 -172) =     48.19797  eV     1   --> A''            
     e(173 -173) =     48.30847  eV     1   --> A'             
     e(174 -174) =     48.52751  eV     1   --> A'             
     e(175 -175) =     48.73032  eV     1   --> A''            
     e(176 -176) =     48.83584  eV     1   --> A''            
     e(177 -177) =     48.91671  eV     1   --> A'             
     e(178 -178) =     48.99069  eV     1   --> A'             
     e(179 -179) =     49.18028  eV     1   --> A''            
     e(180 -180) =     49.25962  eV     1   --> A'             
     e(181 -181) =     49.31730  eV     1   --> A'             
     e(182 -182) =     49.47579  eV     1   --> A''            
     e(183 -183) =     49.61107  eV     1   --> A'             
     e(184 -184) =     49.83745  eV     1   --> A''            
     e(185 -185) =     49.83765  eV     1   --> A'             
     e(186 -186) =     50.23169  eV     1   --> A'             
     e(187 -187) =     50.27437  eV     1   --> A'             
     e(188 -188) =     50.32381  eV     1   --> A''            
     e(189 -189) =     50.84164  eV     1   --> A''            
     e(190 -190) =     50.88531  eV     1   --> A'             
     e(191 -191) =     51.03513  eV     1   --> A''            
     e(192 -192) =     51.04600  eV     1   --> A'             
     e(193 -193) =     51.46520  eV     1   --> A'             
     e(194 -194) =     51.70809  eV     1   --> A''            
     e(195 -195) =     51.75164  eV     1   --> A'             
     e(196 -196) =     51.77031  eV     1   --> A''            
     e(197 -197) =     51.77292  eV     1   --> A'             
     e(198 -198) =     51.95183  eV     1   --> A''            
     e(199 -199) =     52.37403  eV     1   --> A''            
     e(200 -200) =     52.46185  eV     1   --> A'             

 **************************************************************************

 **************************************************************************

                    xk=(   0.29915,  -0.17271,   0.02814  )

     Band symmetry, C_s (m)     point group:

     e(  1 -  1) =   -102.78795  eV     1   --> A'             
     e(  2 -  2) =   -101.78266  eV     1   --> A'             
     e(  3 -  3) =    -61.71608  eV     1   --> A'             
     e(  4 -  4) =    -61.69948  eV     1   --> A'             
     e(  5 -  5) =    -61.68849  eV     1   --> A''            
     e(  6 -  6) =    -60.65292  eV     1   --> A'             
     e(  7 -  7) =    -60.64126  eV     1   --> A''            
     e(  8 -  8) =    -60.61594  eV     1   --> A'             
     e(  9 -  9) =     -8.26466  eV     1   --> A'             
     e( 10 - 10) =     -8.18688  eV     1   --> A'             
     e( 11 - 11) =     -7.48675  eV     1   --> A'             
     e( 12 - 12) =     -7.37269  eV     1   --> A'             
     e( 13 - 13) =      0.44658  eV     1   --> A'             
     e( 14 - 14) =      1.00838  eV     1   --> A'             
     e( 15 - 15) =      1.67550  eV     1   --> A'             
     e( 16 - 16) =      1.75662  eV     1   --> A''            
     e( 17 - 17) =      2.30680  eV     1   --> A'             
     e( 18 - 18) =      2.47549  eV     1   --> A''            
     e( 19 - 19) =      3.11016  eV     1   --> A'             
     e( 20 - 20) =      3.17350  eV     1   --> A''            
     e( 21 - 21) =      3.22085  eV     1   --> A'             
     e( 22 - 22) =      3.45604  eV     1   --> A'             
     e( 23 - 23) =      3.70660  eV     1   --> A'             
     e( 24 - 24) =      3.86945  eV     1   --> A''            
     e( 25 - 25) =      4.09202  eV     1   --> A'             
     e( 26 - 26) =      4.22980  eV     1   --> A'             
     e( 27 - 27) =      4.28173  eV     1   --> A'             
     e( 28 - 28) =      4.40121  eV     1   --> A''            
     e( 29 - 29) =      4.49978  eV     1   --> A''            
     e( 30 - 30) =      4.53247  eV     1   --> A'             
     e( 31 - 31) =      5.12185  eV     1   --> A'             
     e( 32 - 32) =      5.35226  eV     1   --> A''            
     e( 33 - 33) =      5.63303  eV     1   --> A'             
     e( 34 - 34) =      5.83342  eV     1   --> A''            
     e( 35 - 35) =      8.95003  eV     1   --> A'             
     e( 36 - 36) =      9.98139  eV     1   --> A'             
     e( 37 - 37) =     10.02625  eV     1   --> A'             
     e( 38 - 38) =     10.18291  eV     1   --> A'             
     e( 39 - 39) =     11.14238  eV     1   --> A'             
     e( 40 - 40) =     11.56988  eV     1   --> A'             
     e( 41 - 41) =     11.78534  eV     1   --> A''            
     e( 42 - 42) =     11.89698  eV     1   --> A''            
     e( 43 - 43) =     11.98813  eV     1   --> A'             
     e( 44 - 44) =     12.90109  eV     1   --> A'             
     e( 45 - 45) =     13.53409  eV     1   --> A'             
     e( 46 - 46) =     13.71003  eV     1   --> A'             
     e( 47 - 47) =     13.86830  eV     1   --> A'             
     e( 48 - 48) =     14.19757  eV     1   --> A''            
     e( 49 - 49) =     14.47347  eV     1   --> A''            
     e( 50 - 50) =     14.68267  eV     1   --> A'             
     e( 51 - 51) =     15.45779  eV     1   --> A'             
     e( 52 - 52) =     15.59659  eV     1   --> A'             
     e( 53 - 53) =     15.70614  eV     1   --> A''            
     e( 54 - 54) =     16.30071  eV     1   --> A'             
     e( 55 - 55) =     16.32886  eV     1   --> A'             
     e( 56 - 56) =     16.41904  eV     1   --> A''            
     e( 57 - 57) =     16.56125  eV     1   --> A'             
     e( 58 - 58) =     16.74925  eV     1   --> A'             
     e( 59 - 59) =     17.22626  eV     1   --> A''            
     e( 60 - 60) =     17.41267  eV     1   --> A'             
     e( 61 - 61) =     17.68783  eV     1   --> A'             
     e( 62 - 62) =     18.17070  eV     1   --> A''            
     e( 63 - 63) =     18.61875  eV     1   --> A'             
     e( 64 - 64) =     19.00636  eV     1   --> A'             
     e( 65 - 65) =     19.24181  eV     1   --> A''            
     e( 66 - 66) =     19.32637  eV     1   --> A'             
     e( 67 - 67) =     19.72416  eV     1   --> A'             
     e( 68 - 68) =     20.23784  eV     1   --> A'             
     e( 69 - 69) =     20.62030  eV     1   --> A'             
     e( 70 - 70) =     20.74511  eV     1   --> A''            
     e( 71 - 71) =     21.09975  eV     1   --> A''            
     e( 72 - 72) =     21.85351  eV     1   --> A'             
     e( 73 - 73) =     22.01226  eV     1   --> A'             
     e( 74 - 74) =     22.37563  eV     1   --> A'             
     e( 75 - 75) =     23.17493  eV     1   --> A'             
     e( 76 - 76) =     23.27165  eV     1   --> A''            
     e( 77 - 77) =     24.38023  eV     1   --> A''            
     e( 78 - 78) =     24.50033  eV     1   --> A'             
     e( 79 - 79) =     24.86891  eV     1   --> A'             
     e( 80 - 80) =     25.40165  eV     1   --> A'             
     e( 81 - 81) =     25.76875  eV     1   --> A'             
     e( 82 - 82) =     25.84655  eV     1   --> A'             
     e( 83 - 83) =     25.92940  eV     1   --> A''            
     e( 84 - 84) =     26.61629  eV     1   --> A''            
     e( 85 - 85) =     26.82121  eV     1   --> A'             
     e( 86 - 86) =     26.98614  eV     1   --> A'             
     e( 87 - 87) =     27.65947  eV     1   --> A'             
     e( 88 - 88) =     28.06304  eV     1   --> A'             
     e( 89 - 89) =     28.78675  eV     1   --> A''            
     e( 90 - 90) =     29.72772  eV     1   --> A'             
     e( 91 - 91) =     30.67832  eV     1   --> A''            
     e( 92 - 92) =     30.80887  eV     1   --> A'             
     e( 93 - 93) =     31.02764  eV     1   --> A''            
     e( 94 - 94) =     31.07464  eV     1   --> A''            
     e( 95 - 95) =     31.69839  eV     1   --> A'             
     e( 96 - 96) =     32.10686  eV     1   --> A'             
     e( 97 - 97) =     32.24551  eV     1   --> A''            
     e( 98 - 98) =     32.36870  eV     1   --> A'             
     e( 99 - 99) =     32.57211  eV     1   --> A''            
     e(100 -100) =     32.59403  eV     1   --> A'             
     e(101 -101) =     32.80400  eV     1   --> A''            
     e(102 -102) =     33.02415  eV     1   --> A'             
     e(103 -103) =     33.15565  eV     1   --> A'             
     e(104 -104) =     33.47490  eV     1   --> A''            
     e(105 -105) =     33.73451  eV     1   --> A''            
     e(106 -106) =     33.98817  eV     1   --> A'             
     e(107 -107) =     34.00100  eV     1   --> A''            
     e(108 -108) =     34.13831  eV     1   --> A'             
     e(109 -109) =     34.25350  eV     1   --> A'             
     e(110 -110) =     34.65078  eV     1   --> A'             
     e(111 -111) =     35.06981  eV     1   --> A'             
     e(112 -112) =     35.16697  eV     1   --> A''            
     e(113 -113) =     35.58495  eV     1   --> A'             
     e(114 -114) =     35.76120  eV     1   --> A''            
     e(115 -115) =     36.11061  eV     1   --> A'             
     e(116 -116) =     36.25249  eV     1   --> A''            
     e(117 -117) =     36.68096  eV     1   --> A'             
     e(118 -118) =     37.35966  eV     1   --> A''            
     e(119 -119) =     37.39275  eV     1   --> A'             
     e(120 -120) =     37.56863  eV     1   --> A''            
     e(121 -121) =     37.77998  eV     1   --> A'             
     e(122 -122) =     38.19339  eV     1   --> A''            
     e(123 -123) =     38.59121  eV     1   --> A''            
     e(124 -124) =     38.60785  eV     1   --> A'             
     e(125 -125) =     38.69755  eV     1   --> A'             
     e(126 -126) =     38.98047  eV     1   --> A''            
     e(127 -127) =     38.98065  eV     1   --> A'             
     e(128 -128) =     39.07515  eV     1   --> A'             
     e(129 -129) =     39.60777  eV     1   --> A''            
     e(130 -130) =     39.63284  eV     1   --> A''            
     e(131 -131) =     40.32668  eV     1   --> A'             
     e(132 -132) =     40.34047  eV     1   --> A'             
     e(133 -133) =     40.63583  eV     1   --> A'             
     e(134 -134) =     40.65213  eV     1   --> A'             
     e(135 -135) =     40.82265  eV     1   --> A''            
     e(136 -136) =     40.99542  eV     1   --> A'             
     e(137 -137) =     41.11487  eV     1   --> A'             
     e(138 -138) =     41.36115  eV     1   --> A''            
     e(139 -139) =     41.41743  eV     1   --> A'             
     e(140 -140) =     41.41888  eV     1   --> A''            
     e(141 -141) =     41.49903  eV     1   --> A''            
     e(142 -142) =     41.82105  eV     1   --> A'             
     e(143 -143) =     41.89173  eV     1   --> A'             
     e(144 -144) =     42.15789  eV     1   --> A'             
     e(145 -145) =     42.37239  eV     1   --> A'             
     e(146 -146) =     42.65646  eV     1   --> A'             
     e(147 -147) =     42.76079  eV     1   --> A''            
     e(148 -148) =     42.76105  eV     1   --> A'             
     e(149 -149) =     42.78051  eV     1   --> A'             
     e(150 -150) =     43.20713  eV     1   --> A'             
     e(151 -151) =     43.58566  eV     1   --> A''            
     e(152 -152) =     43.59789  eV     1   --> A'             
     e(153 -153) =     43.67191  eV     1   --> A'             
     e(154 -154) =     44.42513  eV     1   --> A'             
     e(155 -155) =     44.43045  eV     1   --> A'             
     e(156 -156) =     44.45040  eV     1   --> A''            
     e(157 -157) =     44.98000  eV     1   --> A''            
     e(158 -158) =     44.98751  eV     1   --> A'             
     e(159 -159) =     45.16875  eV     1   --> A''            
     e(160 -160) =     45.52477  eV     1   --> A''            
     e(161 -161) =     46.02229  eV     1   --> A'             
     e(162 -162) =     46.26866  eV     1   --> A'             
     e(163 -163) =     46.70090  eV     1   --> A'             
     e(164 -164) =     46.72597  eV     1   --> A'             
     e(165 -165) =     46.72736  eV     1   --> A''            
     e(166 -166) =     46.75376  eV     1   --> A'             
     e(167 -167) =     46.78682  eV     1   --> A'             
     e(168 -168) =     46.80334  eV     1   --> A''            
     e(169 -169) =     46.92107  eV     1   --> A''            
     e(170 -170) =     47.06699  eV     1   --> A''            
     e(171 -171) =     47.14721  eV     1   --> A'             
     e(172 -172) =     48.04478  eV     1   --> A''            
     e(173 -173) =     48.26211  eV     1   --> A'             
     e(174 -174) =     48.32461  eV     1   --> A'             
     e(175 -175) =     48.53650  eV     1   --> A''            
     e(176 -176) =     48.64390  eV     1   --> A''            
     e(177 -177) =     48.69331  eV     1   --> A'             
     e(178 -178) =     49.09713  eV     1   --> A'             
     e(179 -179) =     49.31121  eV     1   --> A'             
     e(180 -180) =     49.38342  eV     1   --> A''            
     e(181 -181) =     49.41476  eV     1   --> A'             
     e(182 -182) =     49.51894  eV     1   --> A'             
     e(183 -183) =     49.56608  eV     1   --> A''            
     e(184 -184) =     49.69954  eV     1   --> A''            
     e(185 -185) =     50.09478  eV     1   --> A'             
     e(186 -186) =     50.21287  eV     1   --> A'             
     e(187 -187) =     50.34802  eV     1   --> A'             
     e(188 -188) =     50.39296  eV     1   --> A''            
     e(189 -189) =     50.94539  eV     1   --> A'             
     e(190 -190) =     51.01637  eV     1   --> A''            
     e(191 -191) =     51.13339  eV     1   --> A'             
     e(192 -192) =     51.23329  eV     1   --> A''            
     e(193 -193) =     51.57215  eV     1   --> A''            
     e(194 -194) =     51.64360  eV     1   --> A'             
     e(195 -195) =     51.73317  eV     1   --> A'             
     e(196 -196) =     51.99532  eV     1   --> A''            
     e(197 -197) =     52.05908  eV     1   --> A'             
     e(198 -198) =     52.20971  eV     1   --> A'             
     e(199 -199) =     52.42873  eV     1   --> A''            
     e(200 -200) =     52.43567  eV     1   --> A'             

 **************************************************************************

 **************************************************************************

                    xk=(   0.35898,  -0.20726,   0.03377  )

     Band symmetry, C_s (m)     point group:

     e(  1 -  1) =   -102.78811  eV     1   --> A'             
     e(  2 -  2) =   -101.78283  eV     1   --> A'             
     e(  3 -  3) =    -61.72176  eV     1   --> A'             
     e(  4 -  4) =    -61.69800  eV     1   --> A'             
     e(  5 -  5) =    -61.69031  eV     1   --> A''            
     e(  6 -  6) =    -60.65350  eV     1   --> A'             
     e(  7 -  7) =    -60.64272  eV     1   --> A''            
     e(  8 -  8) =    -60.62099  eV     1   --> A'             
     e(  9 -  9) =     -8.24341  eV     1   --> A'             
     e( 10 - 10) =     -8.16631  eV     1   --> A'             
     e( 11 - 11) =     -7.47479  eV     1   --> A'             
     e( 12 - 12) =     -7.36218  eV     1   --> A'             
     e( 13 - 13) =      0.47257  eV     1   --> A'             
     e( 14 - 14) =      1.02212  eV     1   --> A'             
     e( 15 - 15) =      1.63430  eV     1   --> A'             
     e( 16 - 16) =      1.76070  eV     1   --> A''            
     e( 17 - 17) =      2.24147  eV     1   --> A'             
     e( 18 - 18) =      2.47962  eV     1   --> A''            
     e( 19 - 19) =      3.06137  eV     1   --> A'             
[...]
     e( 99 - 99) =     30.13374  eV     1   --> A'             
     e(100 -100) =     30.27088  eV     1   --> A'             
     e(101 -101) =     30.34223  eV     1   --> A''            
     e(102 -102) =     30.91998  eV     1   --> A'             
     e(103 -103) =     30.95157  eV     1   --> A''            
     e(104 -104) =     31.73276  eV     1   --> A'             
     e(105 -105) =     31.82859  eV     1   --> A''            
     e(106 -106) =     31.84207  eV     1   --> A'             
     e(107 -107) =     32.02659  eV     1   --> A''            
     e(108 -108) =     32.78804  eV     1   --> A'             
     e(109 -109) =     33.00757  eV     1   --> A'             
     e(110 -110) =     33.35331  eV     1   --> A''            
     e(111 -111) =     33.47596  eV     1   --> A'             
     e(112 -112) =     34.44609  eV     1   --> A'             
     e(113 -113) =     34.83154  eV     1   --> A''            
     e(114 -114) =     34.98090  eV     1   --> A'             
     e(115 -115) =     35.22032  eV     1   --> A'             
     e(116 -116) =     35.31011  eV     1   --> A'             
     e(117 -117) =     35.39949  eV     1   --> A''            
     e(118 -118) =     35.78172  eV     1   --> A''            
     e(119 -119) =     35.82703  eV     1   --> A''            
     e(120 -120) =     35.94985  eV     1   --> A'             
     e(121 -121) =     36.02221  eV     1   --> A'             
     e(122 -122) =     36.32749  eV     1   --> A'             
     e(123 -123) =     36.32882  eV     1   --> A''            
     e(124 -124) =     36.57262  eV     1   --> A'             
     e(125 -125) =     36.64925  eV     1   --> A''            
     e(126 -126) =     36.83230  eV     1   --> A'             
     e(127 -127) =     36.98745  eV     1   --> A''            
     e(128 -128) =     37.44966  eV     1   --> A'             
     e(129 -129) =     37.90449  eV     1   --> A'             
     e(130 -130) =     38.29965  eV     1   --> A'             
     e(131 -131) =     38.81255  eV     1   --> A''            
     e(132 -132) =     38.94333  eV     1   --> A'             
     e(133 -133) =     38.98212  eV     1   --> A'             
     e(134 -134) =     39.46327  eV     1   --> A'             
     e(135 -135) =     39.58364  eV     1   --> A''            
     e(136 -136) =     39.72310  eV     1   --> A'             
     e(137 -137) =     39.85833  eV     1   --> A'             
     e(138 -138) =     40.02321  eV     1   --> A''            
     e(139 -139) =     40.27865  eV     1   --> A'             
     e(140 -140) =     40.81443  eV     1   --> A'             
     e(141 -141) =     40.84324  eV     1   --> A'             
     e(142 -142) =     40.90047  eV     1   --> A'             
     e(143 -143) =     40.98011  eV     1   --> A''            
     e(144 -144) =     41.04530  eV     1   --> A''            
     e(145 -145) =     41.17062  eV     1   --> A'             
     e(146 -146) =     41.76958  eV     1   --> A'             
     e(147 -147) =     41.95936  eV     1   --> A'             
     e(148 -148) =     42.17522  eV     1   --> A'             
     e(149 -149) =     42.46428  eV     1   --> A''            
     e(150 -150) =     42.65157  eV     1   --> A''            
     e(151 -151) =     42.65963  eV     1   --> A'             
     e(152 -152) =     43.35573  eV     1   --> A'             
     e(153 -153) =     43.42396  eV     1   --> A'             
     e(154 -154) =     43.52389  eV     1   --> A''            
     e(155 -155) =     43.60662  eV     1   --> A'             
     e(156 -156) =     43.68442  eV     1   --> A''            
     e(157 -157) =     44.00643  eV     1   --> A'             
     e(158 -158) =     44.38977  eV     1   --> A'             
     e(159 -159) =     44.43224  eV     1   --> A''            
     e(160 -160) =     44.53481  eV     1   --> A'             
     e(161 -161) =     44.80837  eV     1   --> A'             
     e(162 -162) =     45.11666  eV     1   --> A''            
     e(163 -163) =     45.33606  eV     1   --> A''            
     e(164 -164) =     45.65133  eV     1   --> A''            
     e(165 -165) =     45.71766  eV     1   --> A'             
     e(166 -166) =     46.44252  eV     1   --> A''            
     e(167 -167) =     46.47187  eV     1   --> A'             
     e(168 -168) =     46.69670  eV     1   --> A'             
     e(169 -169) =     47.12611  eV     1   --> A''            
     e(170 -170) =     47.54546  eV     1   --> A'             
     e(171 -171) =     47.58527  eV     1   --> A'             
     e(172 -172) =     48.09146  eV     1   --> A''            
     e(173 -173) =     48.10469  eV     1   --> A'             
     e(174 -174) =     48.17055  eV     1   --> A''            
     e(175 -175) =     49.04040  eV     1   --> A''            
     e(176 -176) =     49.18117  eV     1   --> A'             
     e(177 -177) =     49.30193  eV     1   --> A'             
     e(178 -178) =     49.74511  eV     1   --> A'             
     e(179 -179) =     49.76513  eV     1   --> A'             
     e(180 -180) =     49.83524  eV     1   --> A''            
     e(181 -181) =     50.20189  eV     1   --> A''            
     e(182 -182) =     50.21830  eV     1   --> A'             
     e(183 -183) =     50.40910  eV     1   --> A'             
     e(184 -184) =     50.68930  eV     1   --> A'             
     e(185 -185) =     50.93463  eV     1   --> A'             
     e(186 -186) =     51.00246  eV     1   --> A'             
     e(187 -187) =     51.32232  eV     1   --> A''            
     e(188 -188) =     52.03631  eV     1   --> A''            
     e(189 -189) =     52.06897  eV     1   --> A''            
     e(190 -190) =     52.29852  eV     1   --> A''            
     e(191 -191) =     52.70221  eV     1   --> A'             
     e(192 -192) =     52.84031  eV     1   --> A'             
     e(193 -193) =     52.90849  eV     1   --> A''            
     e(194 -194) =     53.48616  eV     1   --> A''            
     e(195 -195) =     53.73436  eV     1   --> A''            
     e(196 -196) =     53.79629  eV     1   --> A'             
     e(197 -197) =     53.94542  eV     1   --> A'             
     e(198 -198) =     54.40720  eV     1   --> A'             
     e(199 -199) =     54.54461  eV     1   --> A'             
     e(200 -200) =     54.66561  eV     1   --> A''            

 **************************************************************************

 **************************************************************************

                    xk=(   1.69962,  -0.98128,   0.50659  )

     Band symmetry, C_s (m)     point group:

     e(  1 -  1) =   -102.78693  eV     1   --> A'             
     e(  2 -  2) =   -101.78166  eV     1   --> A'             
     e(  3 -  3) =    -61.73194  eV     1   --> A'             
     e(  4 -  4) =    -61.68184  eV     1   --> A'             
     e(  5 -  5) =    -61.67446  eV     1   --> A''            
     e(  6 -  6) =    -60.63902  eV     1   --> A'             
     e(  7 -  7) =    -60.63378  eV     1   --> A'             
     e(  8 -  8) =    -60.62737  eV     1   --> A''            
     e(  9 -  9) =     -7.34106  eV     1   --> A'             
     e( 10 - 10) =     -7.29826  eV     1   --> A'             
     e( 11 - 11) =     -7.15630  eV     1   --> A'             
     e( 12 - 12) =     -7.11304  eV     1   --> A'             
     e( 13 - 13) =     -0.02424  eV     1   --> A'             
     e( 14 - 14) =      0.08534  eV     1   --> A'             
     e( 15 - 15) =      0.88660  eV     1   --> A'             
     e( 16 - 16) =      1.02382  eV     1   --> A'             
     e( 17 - 17) =      1.81647  eV     1   --> A''            
     e( 18 - 18) =      1.91457  eV     1   --> A'             
     e( 19 - 19) =      2.49596  eV     1   --> A'             
     e( 20 - 20) =      2.52294  eV     1   --> A''            
     e( 21 - 21) =      2.73540  eV     1   --> A'             
     e( 22 - 22) =      2.86139  eV     1   --> A'             
     e( 23 - 23) =      2.94948  eV     1   --> A''            
     e( 24 - 24) =      3.01495  eV     1   --> A''            
     e( 25 - 25) =      3.16807  eV     1   --> A'             
     e( 26 - 26) =      3.46936  eV     1   --> A''            
     e( 27 - 27) =      3.51789  eV     1   --> A'             
     e( 28 - 28) =      3.94831  eV     1   --> A'             
     e( 29 - 29) =      4.24128  eV     1   --> A''            
     e( 30 - 30) =      4.25296  eV     1   --> A'             
     e( 31 - 31) =      4.82302  eV     1   --> A'             
     e( 32 - 32) =      5.14770  eV     1   --> A''            
     e( 33 - 33) =      5.57629  eV     1   --> A'             
     e( 34 - 34) =      5.69308  eV     1   --> A''            
     e( 35 - 35) =      7.82023  eV     1   --> A'             
     e( 36 - 36) =      8.37576  eV     1   --> A'             
     e( 37 - 37) =      9.93531  eV     1   --> A'             
     e( 38 - 38) =     10.22280  eV     1   --> A'             
     e( 39 - 39) =     10.78676  eV     1   --> A'             
     e( 40 - 40) =     11.39761  eV     1   --> A'             
     e( 41 - 41) =     11.55480  eV     1   --> A'             
     e( 42 - 42) =     11.90365  eV     1   --> A'             
     e( 43 - 43) =     12.29356  eV     1   --> A''            
     e( 44 - 44) =     12.91050  eV     1   --> A''            
     e( 45 - 45) =     13.92063  eV     1   --> A'             
     e( 46 - 46) =     14.11547  eV     1   --> A'             
     e( 47 - 47) =     14.20061  eV     1   --> A'             
     e( 48 - 48) =     16.08443  eV     1   --> A''            
     e( 49 - 49) =     16.53940  eV     1   --> A'             
     e( 50 - 50) =     16.71108  eV     1   --> A'             
     e( 51 - 51) =     16.84913  eV     1   --> A'             
     e( 52 - 52) =     17.58928  eV     1   --> A'             
     e( 53 - 53) =     17.62381  eV     1   --> A'             
     e( 54 - 54) =     17.69745  eV     1   --> A''            
     e( 55 - 55) =     18.19150  eV     1   --> A'             
     e( 56 - 56) =     18.55623  eV     1   --> A''            
     e( 57 - 57) =     18.80467  eV     1   --> A'             
     e( 58 - 58) =     19.04601  eV     1   --> A''            
     e( 59 - 59) =     19.64567  eV     1   --> A''            
     e( 60 - 60) =     19.64871  eV     1   --> A'             
     e( 61 - 61) =     19.95311  eV     1   --> A'             
     e( 62 - 62) =     20.15593  eV     1   --> A''            
     e( 63 - 63) =     20.37534  eV     1   --> A'             
     e( 64 - 64) =     20.37635  eV     1   --> A''            
     e( 65 - 65) =     20.67866  eV     1   --> A'             
     e( 66 - 66) =     20.96398  eV     1   --> A''            
     e( 67 - 67) =     21.05471  eV     1   --> A'             
     e( 68 - 68) =     21.24903  eV     1   --> A''            
     e( 69 - 69) =     21.74798  eV     1   --> A''            
     e( 70 - 70) =     22.11301  eV     1   --> A'             
     e( 71 - 71) =     22.47404  eV     1   --> A''            
     e( 72 - 72) =     23.33675  eV     1   --> A'             
     e( 73 - 73) =     23.57164  eV     1   --> A'             
     e( 74 - 74) =     23.98781  eV     1   --> A'             
     e( 75 - 75) =     24.15961  eV     1   --> A''            
     e( 76 - 76) =     25.04179  eV     1   --> A'             
     e( 77 - 77) =     25.38764  eV     1   --> A'             
     e( 78 - 78) =     25.43533  eV     1   --> A'             
     e( 79 - 79) =     25.67441  eV     1   --> A'             
     e( 80 - 80) =     25.68784  eV     1   --> A''            
     e( 81 - 81) =     25.83336  eV     1   --> A''            
     e( 82 - 82) =     25.94399  eV     1   --> A''            
     e( 83 - 83) =     25.94465  eV     1   --> A'             
     e( 84 - 84) =     26.65626  eV     1   --> A'             
     e( 85 - 85) =     26.89132  eV     1   --> A'             
     e( 86 - 86) =     27.37713  eV     1   --> A'             
     e( 87 - 87) =     27.50638  eV     1   --> A'             
     e( 88 - 88) =     27.52029  eV     1   --> A''            
     e( 89 - 89) =     27.76679  eV     1   --> A'             
     e( 90 - 90) =     28.06157  eV     1   --> A''            
     e( 91 - 91) =     28.07642  eV     1   --> A'             
     e( 92 - 92) =     28.17118  eV     1   --> A'             
     e( 93 - 93) =     28.45473  eV     1   --> A'             
     e( 94 - 94) =     28.62211  eV     1   --> A''            
     e( 95 - 95) =     28.65492  eV     1   --> A'             
     e( 96 - 96) =     28.82689  eV     1   --> A'             
     e( 97 - 97) =     29.34326  eV     1   --> A'             
     e( 98 - 98) =     29.57736  eV     1   --> A'             
     e( 99 - 99) =     30.26284  eV     1   --> A''            
     e(100 -100) =     30.29246  eV     1   --> A'             
     e(101 -101) =     30.43142  eV     1   --> A'             
     e(102 -102) =     30.94198  eV     1   --> A'             
     e(103 -103) =     31.23800  eV     1   --> A''            
     e(104 -104) =     32.00714  eV     1   --> A''            
     e(105 -105) =     32.06530  eV     1   --> A'             
     e(106 -106) =     32.13840  eV     1   --> A''            
     e(107 -107) =     32.20521  eV     1   --> A'             
     e(108 -108) =     32.84813  eV     1   --> A'             
     e(109 -109) =     33.20333  eV     1   --> A'             
     e(110 -110) =     33.26712  eV     1   --> A''            
     e(111 -111) =     33.36229  eV     1   --> A'             
     e(112 -112) =     34.52569  eV     1   --> A'             
     e(113 -113) =     34.59170  eV     1   --> A''            
     e(114 -114) =     34.59394  eV     1   --> A'             
     e(115 -115) =     34.98925  eV     1   --> A'             
     e(116 -116) =     35.19892  eV     1   --> A'             
     e(117 -117) =     35.31583  eV     1   --> A''            
     e(118 -118) =     35.61400  eV     1   --> A'             
     e(119 -119) =     35.77103  eV     1   --> A''            
     e(120 -120) =     35.83600  eV     1   --> A''            
     e(121 -121) =     35.99780  eV     1   --> A'             
     e(122 -122) =     36.13418  eV     1   --> A'             
     e(123 -123) =     36.17945  eV     1   --> A''            
     e(124 -124) =     36.45648  eV     1   --> A''            
     e(125 -125) =     36.62789  eV     1   --> A'             
     e(126 -126) =     36.89774  eV     1   --> A'             
     e(127 -127) =     37.47548  eV     1   --> A''            
     e(128 -128) =     37.85606  eV     1   --> A'             
     e(129 -129) =     37.93300  eV     1   --> A'             
     e(130 -130) =     38.35862  eV     1   --> A'             
     e(131 -131) =     38.82478  eV     1   --> A''            
     e(132 -132) =     38.83723  eV     1   --> A'             
     e(133 -133) =     39.09827  eV     1   --> A'             
     e(134 -134) =     39.25957  eV     1   --> A'             
     e(135 -135) =     39.33321  eV     1   --> A''            
     e(136 -136) =     39.54829  eV     1   --> A'             
     e(137 -137) =     39.74437  eV     1   --> A'             
     e(138 -138) =     40.53640  eV     1   --> A''            
     e(139 -139) =     40.58745  eV     1   --> A'             
     e(140 -140) =     40.81886  eV     1   --> A'             
     e(141 -141) =     40.85765  eV     1   --> A'             
     e(142 -142) =     40.98531  eV     1   --> A''            
     e(143 -143) =     41.04455  eV     1   --> A''            
     e(144 -144) =     41.04776  eV     1   --> A'             
     e(145 -145) =     41.17810  eV     1   --> A'             
     e(146 -146) =     41.82156  eV     1   --> A'             
     e(147 -147) =     42.06107  eV     1   --> A'             
     e(148 -148) =     42.38371  eV     1   --> A'             
     e(149 -149) =     42.45731  eV     1   --> A''            
     e(150 -150) =     42.56243  eV     1   --> A'             
     e(151 -151) =     42.66858  eV     1   --> A''            
     e(152 -152) =     43.15419  eV     1   --> A''            
     e(153 -153) =     43.20947  eV     1   --> A''            
     e(154 -154) =     43.34181  eV     1   --> A'             
     e(155 -155) =     43.53172  eV     1   --> A'             
     e(156 -156) =     43.63920  eV     1   --> A'             
     e(157 -157) =     43.90547  eV     1   --> A'             
     e(158 -158) =     44.40418  eV     1   --> A'             
     e(159 -159) =     44.47875  eV     1   --> A'             
     e(160 -160) =     45.02531  eV     1   --> A''            
     e(161 -161) =     45.14492  eV     1   --> A''            
     e(162 -162) =     45.27423  eV     1   --> A'             
     e(163 -163) =     45.39244  eV     1   --> A''            
     e(164 -164) =     45.55656  eV     1   --> A''            
     e(165 -165) =     45.75397  eV     1   --> A'             
     e(166 -166) =     46.17174  eV     1   --> A'             
     e(167 -167) =     46.55951  eV     1   --> A'             
     e(168 -168) =     46.64289  eV     1   --> A''            
     e(169 -169) =     47.18404  eV     1   --> A''            
     e(170 -170) =     47.24159  eV     1   --> A'             
     e(171 -171) =     47.38304  eV     1   --> A'             
     e(172 -172) =     47.59114  eV     1   --> A''            
     e(173 -173) =     47.99539  eV     1   --> A'             
     e(174 -174) =     48.44751  eV     1   --> A''            
     e(175 -175) =     49.12869  eV     1   --> A'             
     e(176 -176) =     49.18276  eV     1   --> A''            
     e(177 -177) =     49.20755  eV     1   --> A'             
     e(178 -178) =     49.56413  eV     1   --> A'             
     e(179 -179) =     49.61290  eV     1   --> A''            
     e(180 -180) =     49.93916  eV     1   --> A'             
     e(181 -181) =     50.03268  eV     1   --> A'             
     e(182 -182) =     50.16838  eV     1   --> A'             
     e(183 -183) =     50.44119  eV     1   --> A''            
     e(184 -184) =     51.01845  eV     1   --> A'             
     e(185 -185) =     51.07701  eV     1   --> A''            
     e(186 -186) =     51.22502  eV     1   --> A'             
     e(187 -187) =     51.31174  eV     1   --> A'             
     e(188 -188) =     51.96565  eV     1   --> A''            
     e(189 -189) =     52.13123  eV     1   --> A''            
     e(190 -190) =     52.45127  eV     1   --> A''            
     e(191 -191) =     52.74608  eV     1   --> A''            
     e(192 -192) =     53.07418  eV     1   --> A'             
     e(193 -193) =     53.14418  eV     1   --> A'             
     e(194 -194) =     53.15925  eV     1   --> A''            
     e(195 -195) =     53.43863  eV     1   --> A''            
     e(196 -196) =     53.61996  eV     1   --> A'             
     e(197 -197) =     54.25500  eV     1   --> A'             
     e(198 -198) =     54.31580  eV     1   --> A'             
     e(199 -199) =     54.39626  eV     1   --> A'             
     e(200 -200) =     54.79202  eV     1   --> A''            

 **************************************************************************

     BANDS        :   8m47.95s CPU  14m41.31s WALL


   This run was terminated on:  12:26:48   9Mar2026            

=------------------------------------------------------------------------------=
   JOB DONE.
=------------------------------------------------------------------------------=
