
     Program PWSCF v.7.3.1 starts on  9Feb2026 at 12:40:41 

     This program is part of the open-source Quantum ESPRESSO suite
     for quantum simulation of materials; please cite
         "P. Giannozzi et al., J. Phys.:Condens. Matter 21 395502 (2009);
         "P. Giannozzi et al., J. Phys.:Condens. Matter 29 465901 (2017);
         "P. Giannozzi et al., J. Chem. Phys. 152 154105 (2020);
          URL http://www.quantum-espresso.org", 
     in publications or presentations arising from this work. More details at
     http://www.quantum-espresso.org/quote

     Parallel version (MPI), running on  2048 processors

     MPI processes distributed on    16 nodes
     232854 MiB available memory on the printing compute node when the environment starts

     Waiting for input...
     Reading input from standard input

     Current dimensions of program PWSCF are:
     Max number of different atomic species (ntypx) = 10
     Max number of k-points (npk) =  40000
     Max angular momentum in pseudopotentials (lmaxx) =  4

     K-points division:     npool     =      64
     R & G space division:  proc/nbgrp/npool/nimage =      32
     Subspace diagonalization in iterative solution of the eigenvalue problem:
     a serial algorithm will be used

     Message from routine divide_et_impera:
     suboptimal parallelization: some nodes have no k-points

     Parallelization info
     --------------------
     sticks:   dense  smooth     PW     G-vecs:    dense   smooth      PW
     Min          24      24      6                 3672     3672     552
     Max          25      25      7                 3700     3700     593
     Sum         769     769    223               117923   117923   18417

     Using Slab Decomposition



     bravais-lattice index     =            4
     lattice parameter (alat)  =       5.9358  a.u.
     unit-cell volume          =    1220.5221 (a.u.)^3
     number of atoms/cell      =            3
     number of atomic types    =            2
     number of electrons       =        26.00
     number of Kohn-Sham states=           13
     kinetic-energy cutoff     =      80.0000  Ry
     charge density cutoff     =     320.0000  Ry
     scf convergence threshold =      1.0E-15
     mixing beta               =       0.2000
     number of iterations used =            8  plain     mixing
     Exchange-correlation= PBESOL
                           (   1   4  10   8   0   0   0)

     celldm(1)=   5.935776  celldm(2)=   0.000000  celldm(3)=   6.738799
     celldm(4)=   0.000000  celldm(5)=   0.000000  celldm(6)=   0.000000

     crystal axes: (cart. coord. in units of alat)
               a(1) = (   1.000000   0.000000   0.000000 )  
               a(2) = (  -0.500000   0.866025   0.000000 )  
               a(3) = (   0.000000   0.000000   6.738799 )  

     reciprocal axes: (cart. coord. in units 2 pi/alat)
               b(1) = (  1.000000  0.577350 -0.000000 )  
               b(2) = (  0.000000  1.154701  0.000000 )  
               b(3) = (  0.000000 -0.000000  0.148394 )  


     PseudoPot. # 1 for Mo read from file:
     ./pseudo/Mo.pbesol.dojo.upf
     MD5 check sum: c40353276b9086539cda6b9e5a66907b
     Pseudo is Norm-conserving + core correction, Zval = 14.0
     Generated using ONCVPSP code by D. R. Hamann
     Using radial grid of 1640 points,  6 beta functions with: 
                l(1) =   0
                l(2) =   0
                l(3) =   1
                l(4) =   1
                l(5) =   2
                l(6) =   2

     PseudoPot. # 2 for S  read from file:
     ./pseudo/S.pbesol.dojo.upf
     MD5 check sum: 501737efeeef1fb1c631cda521d4e019
     Pseudo is Norm-conserving + core correction, Zval =  6.0
     Generated using ONCVPSP code by D. R. Hamann
     Using radial grid of 1146 points,  6 beta functions with: 
                l(1) =   0
                l(2) =   0
                l(3) =   1
                l(4) =   1
                l(5) =   2
                l(6) =   2

     atomic species   valence    mass     pseudopotential
     Mo               14.00    95.95000     Mo( 1.00)
     S                 6.00    32.06500     S ( 1.00)

     12 Sym. Ops. (no inversion) found


                                    s                        frac. trans.

      isym =  1     identity                                     

 cryst.   s( 1) = (     1          0          0      )
                  (     0          1          0      )
                  (     0          0          1      )

 cart.    s( 1) = (  1.0000000  0.0000000  0.0000000 )
                  (  0.0000000  1.0000000  0.0000000 )
                  (  0.0000000  0.0000000  1.0000000 )


      isym =  2     180 deg rotation - cart. axis [0,1,0]        

 cryst.   s( 2) = (    -1          0          0      )
                  (     1          1          0      )
                  (     0          0         -1      )

 cart.    s( 2) = ( -1.0000000  0.0000000  0.0000000 )
                  (  0.0000000  1.0000000  0.0000000 )
                  (  0.0000000  0.0000000 -1.0000000 )


      isym =  3     120 deg rotation - cryst. axis [0,0,1]       

 cryst.   s( 3) = (     0          1          0      )
                  (    -1         -1          0      )
                  (     0          0          1      )

 cart.    s( 3) = ( -0.5000000 -0.8660254  0.0000000 )
                  (  0.8660254 -0.5000000  0.0000000 )
                  (  0.0000000  0.0000000  1.0000000 )


      isym =  4     120 deg rotation - cryst. axis [0,0,-1]      

 cryst.   s( 4) = (    -1         -1          0      )
                  (     1          0          0      )
                  (     0          0          1      )

 cart.    s( 4) = ( -0.5000000  0.8660254  0.0000000 )
                  ( -0.8660254 -0.5000000  0.0000000 )
                  (  0.0000000  0.0000000  1.0000000 )


      isym =  5     180 deg rotation - cryst. axis [1,-1,0]      

 cryst.   s( 5) = (     0         -1          0      )
                  (    -1          0          0      )
                  (     0          0         -1      )

 cart.    s( 5) = (  0.5000000 -0.8660254  0.0000000 )
                  ( -0.8660254 -0.5000000  0.0000000 )
                  (  0.0000000  0.0000000 -1.0000000 )


      isym =  6     180 deg rotation - cryst. axis [2,1,0]       

 cryst.   s( 6) = (     1          1          0      )
                  (     0         -1          0      )
                  (     0          0         -1      )

 cart.    s( 6) = (  0.5000000  0.8660254  0.0000000 )
                  (  0.8660254 -0.5000000  0.0000000 )
                  (  0.0000000  0.0000000 -1.0000000 )


      isym =  7     inv. 180 deg rotation - cart. axis [0,0,1]   

 cryst.   s( 7) = (     1          0          0      )
                  (     0          1          0      )
                  (     0          0         -1      )

 cart.    s( 7) = (  1.0000000  0.0000000  0.0000000 )
                  (  0.0000000  1.0000000  0.0000000 )
                  (  0.0000000  0.0000000 -1.0000000 )


      isym =  8     inv. 180 deg rotation - cart. axis [1,0,0]   

 cryst.   s( 8) = (    -1          0          0      )
                  (     1          1          0      )
                  (     0          0          1      )

 cart.    s( 8) = ( -1.0000000  0.0000000  0.0000000 )
                  (  0.0000000  1.0000000  0.0000000 )
                  (  0.0000000  0.0000000  1.0000000 )


      isym =  9     inv.  60 deg rotation - cryst. axis [0,0,1]  

 cryst.   s( 9) = (    -1         -1          0      )
                  (     1          0          0      )
                  (     0          0         -1      )

 cart.    s( 9) = ( -0.5000000  0.8660254  0.0000000 )
                  ( -0.8660254 -0.5000000  0.0000000 )
                  (  0.0000000  0.0000000 -1.0000000 )


      isym = 10     inv.  60 deg rotation - cryst. axis [0,0,-1] 

 cryst.   s(10) = (     0          1          0      )
                  (    -1         -1          0      )
                  (     0          0         -1      )

 cart.    s(10) = ( -0.5000000 -0.8660254  0.0000000 )
                  (  0.8660254 -0.5000000  0.0000000 )
                  (  0.0000000  0.0000000 -1.0000000 )


      isym = 11     inv. 180 deg rotation - cryst. axis [0,1,0]  

 cryst.   s(11) = (     1          1          0      )
                  (     0         -1          0      )
                  (     0          0          1      )

 cart.    s(11) = (  0.5000000  0.8660254  0.0000000 )
                  (  0.8660254 -0.5000000  0.0000000 )
                  (  0.0000000  0.0000000  1.0000000 )


      isym = 12     inv. 180 deg rotation - cryst. axis [1,1,0]  

 cryst.   s(12) = (     0         -1          0      )
                  (    -1          0          0      )
                  (     0          0          1      )

 cart.    s(12) = (  0.5000000 -0.8660254  0.0000000 )
                  ( -0.8660254 -0.5000000  0.0000000 )
                  (  0.0000000  0.0000000  1.0000000 )


     point group D_3h (-62m)
     there are  6 classes
     the character table:

       E     2C3   3C2   s_h   2S3   3s_v 
A'_1   1.00  1.00  1.00  1.00  1.00  1.00
A'_2   1.00  1.00 -1.00  1.00  1.00 -1.00
E'     2.00 -1.00  0.00  2.00 -1.00  0.00
A''1   1.00  1.00  1.00 -1.00 -1.00 -1.00
A''2   1.00  1.00 -1.00 -1.00 -1.00  1.00
E''    2.00 -1.00  0.00 -2.00  1.00  0.00

     the symmetry operations in each class and the name of the first element:

     E        1
          identity                                               
     2C3      3    4
          120 deg rotation - cryst. axis [0,0,1]                 
     3C2      2    6    5
          180 deg rotation - cart. axis [0,1,0]                  
     s_h      7
          inv. 180 deg rotation - cart. axis [0,0,1]             
     2S3      9   10
          inv.  60 deg rotation - cryst. axis [0,0,1]            
     3s_v     8   11   12
          inv. 180 deg rotation - cart. axis [1,0,0]             

   Cartesian axes

     site n.     atom                  positions (alat units)
         1        Mo     tau(   1) = (   0.0000000   0.5773502   0.0000000  )
         2        S      tau(   2) = (   0.5000000   0.2886751   0.4961981  )
         3        S      tau(   3) = (   0.5000000   0.2886751  -0.4961981  )

   Crystallographic axes

     site n.     atom                  positions (cryst. coord.)
         1        Mo     tau(   1) = (  0.3333333  0.6666666  0.0000000  )
         2        S      tau(   2) = (  0.6666667  0.3333333  0.0736330  )
         3        S      tau(   3) = (  0.6666667  0.3333333 -0.0736330  )

     number of k points=    37
                       cart. coord. in units 2pi/alat
        k(    1) = (   0.0000000   0.0000000   0.0000000), wk =   0.0061728
        k(    2) = (   0.0000000   0.0641500   0.0000000), wk =   0.0370370
        k(    3) = (   0.0000000   0.1283001   0.0000000), wk =   0.0370370
        k(    4) = (   0.0000000   0.1924501   0.0000000), wk =   0.0370370
        k(    5) = (   0.0000000   0.2566001   0.0000000), wk =   0.0370370
        k(    6) = (   0.0000000   0.3207501   0.0000000), wk =   0.0370370
        k(    7) = (   0.0000000   0.3849002   0.0000000), wk =   0.0370370
        k(    8) = (   0.0000000   0.4490502   0.0000000), wk =   0.0370370
        k(    9) = (   0.0000000   0.5132002   0.0000000), wk =   0.0370370
        k(   10) = (   0.0000000  -0.5773503   0.0000000), wk =   0.0185185
        k(   11) = (   0.0555556   0.0962250   0.0000000), wk =   0.0370370
        k(   12) = (   0.0555556   0.1603751   0.0000000), wk =   0.0740741
        k(   13) = (   0.0555556   0.2245251   0.0000000), wk =   0.0740741
        k(   14) = (   0.0555556   0.2886751   0.0000000), wk =   0.0740741
        k(   15) = (   0.0555556   0.3528252   0.0000000), wk =   0.0740741
        k(   16) = (   0.0555556   0.4169752   0.0000000), wk =   0.0740741
        k(   17) = (   0.0555556   0.4811252   0.0000000), wk =   0.0740741
        k(   18) = (   0.0555556   0.5452753   0.0000000), wk =   0.0740741
        k(   19) = (   0.1111111   0.1924501   0.0000000), wk =   0.0370370
        k(   20) = (   0.1111111   0.2566001   0.0000000), wk =   0.0740741
        k(   21) = (   0.1111111   0.3207501   0.0000000), wk =   0.0740741
        k(   22) = (   0.1111111   0.3849002   0.0000000), wk =   0.0740741
        k(   23) = (   0.1111111   0.4490502   0.0000000), wk =   0.0740741
        k(   24) = (   0.1111111   0.5132002   0.0000000), wk =   0.0740741
        k(   25) = (   0.1111111   0.5773503   0.0000000), wk =   0.0370370
        k(   26) = (   0.1666667   0.2886751   0.0000000), wk =   0.0370370
        k(   27) = (   0.1666667   0.3528252   0.0000000), wk =   0.0740741
        k(   28) = (   0.1666667   0.4169752   0.0000000), wk =   0.0740741
        k(   29) = (   0.1666667   0.4811252   0.0000000), wk =   0.0740741
        k(   30) = (   0.1666667   0.5452753   0.0000000), wk =   0.0740741
        k(   31) = (   0.2222222   0.3849002   0.0000000), wk =   0.0370370
        k(   32) = (   0.2222222   0.4490502   0.0000000), wk =   0.0740741
        k(   33) = (   0.2222222   0.5132002   0.0000000), wk =   0.0740741
        k(   34) = (   0.2222222   0.5773503   0.0000000), wk =   0.0370370
        k(   35) = (   0.2777778   0.4811252   0.0000000), wk =   0.0370370
        k(   36) = (   0.2777778   0.5452753   0.0000000), wk =   0.0740741
        k(   37) = (   0.3333333   0.5773503   0.0000000), wk =   0.0123457

                       cryst. coord.
        k(    1) = (   0.0000000   0.0000000   0.0000000), wk =   0.0061728
        k(    2) = (   0.0000000   0.0555556   0.0000000), wk =   0.0370370
        k(    3) = (   0.0000000   0.1111111   0.0000000), wk =   0.0370370
        k(    4) = (   0.0000000   0.1666667   0.0000000), wk =   0.0370370
        k(    5) = (   0.0000000   0.2222222   0.0000000), wk =   0.0370370
        k(    6) = (   0.0000000   0.2777778   0.0000000), wk =   0.0370370
        k(    7) = (   0.0000000   0.3333333   0.0000000), wk =   0.0370370
        k(    8) = (   0.0000000   0.3888889   0.0000000), wk =   0.0370370
        k(    9) = (   0.0000000   0.4444444   0.0000000), wk =   0.0370370
        k(   10) = (   0.0000000  -0.5000000   0.0000000), wk =   0.0185185
        k(   11) = (   0.0555556   0.0555556   0.0000000), wk =   0.0370370
        k(   12) = (   0.0555556   0.1111111   0.0000000), wk =   0.0740741
        k(   13) = (   0.0555556   0.1666667   0.0000000), wk =   0.0740741
        k(   14) = (   0.0555556   0.2222222   0.0000000), wk =   0.0740741
        k(   15) = (   0.0555556   0.2777778   0.0000000), wk =   0.0740741
        k(   16) = (   0.0555556   0.3333333   0.0000000), wk =   0.0740741
        k(   17) = (   0.0555556   0.3888889   0.0000000), wk =   0.0740741
        k(   18) = (   0.0555556   0.4444444   0.0000000), wk =   0.0740741
        k(   19) = (   0.1111111   0.1111111   0.0000000), wk =   0.0370370
        k(   20) = (   0.1111111   0.1666667   0.0000000), wk =   0.0740741
        k(   21) = (   0.1111111   0.2222222   0.0000000), wk =   0.0740741
        k(   22) = (   0.1111111   0.2777778   0.0000000), wk =   0.0740741
        k(   23) = (   0.1111111   0.3333333   0.0000000), wk =   0.0740741
        k(   24) = (   0.1111111   0.3888889   0.0000000), wk =   0.0740741
        k(   25) = (   0.1111111   0.4444444   0.0000000), wk =   0.0370370
        k(   26) = (   0.1666667   0.1666667   0.0000000), wk =   0.0370370
        k(   27) = (   0.1666667   0.2222222   0.0000000), wk =   0.0740741
        k(   28) = (   0.1666667   0.2777778   0.0000000), wk =   0.0740741
        k(   29) = (   0.1666667   0.3333333   0.0000000), wk =   0.0740741
        k(   30) = (   0.1666667   0.3888889   0.0000000), wk =   0.0740741
        k(   31) = (   0.2222222   0.2222222   0.0000000), wk =   0.0370370
        k(   32) = (   0.2222222   0.2777778   0.0000000), wk =   0.0740741
        k(   33) = (   0.2222222   0.3333333   0.0000000), wk =   0.0740741
        k(   34) = (   0.2222222   0.3888889   0.0000000), wk =   0.0370370
        k(   35) = (   0.2777778   0.2777778   0.0000000), wk =   0.0370370
        k(   36) = (   0.2777778   0.3333333   0.0000000), wk =   0.0740741
        k(   37) = (   0.3333333   0.3333333   0.0000000), wk =   0.0123457

     Dense  grid:   117923 G-vectors     FFT dimensions: (  36,  36, 240)

     Dynamical RAM for                 wfc:       0.09 MB

     Dynamical RAM for     wfc (w. buffer):       0.09 MB

     Dynamical RAM for           str. fact:       0.11 MB

     Dynamical RAM for           local pot:       0.00 MB

     Dynamical RAM for          nlocal pot:       0.38 MB

     Dynamical RAM for                qrad:       2.87 MB

     Dynamical RAM for          rho,v,vnew:       0.41 MB

     Dynamical RAM for               rhoin:       0.14 MB

     Dynamical RAM for            rho*nmix:       0.90 MB

     Dynamical RAM for           G-vectors:       0.24 MB

     Dynamical RAM for          h,s,v(r/c):       0.03 MB

     Dynamical RAM for          <psi|beta>:       0.01 MB

     Dynamical RAM for                 psi:       0.18 MB

     Dynamical RAM for                hpsi:       0.18 MB

     Dynamical RAM for      wfcinit/wfcrot:       0.26 MB

     Estimated static dynamical RAM per process >       4.80 MB

     Estimated max dynamical RAM per process >       6.10 MB

     Estimated total dynamical RAM >      10.43 GB
 ----2D----2D----2D----2D----2D----2D----2D----2D----2D----2D----2D----2D
  The code is running with the 2D cutoff
  Please refer to:
  Sohier, T., Calandra, M., & Mauri, F. (2017), 
  Density functional perturbation theory for gated two-dimensional heterostructures:
  Theoretical developments and application to flexural phonons in graphene.
  Physical Review B, 96(7), 75448. https://doi.org/10.1103/PhysRevB.96.075448
 ----2D----2D----2D----2D----2D----2D----2D----2D----2D----2D----2D----2D
     Cannot read rho : file not found

     Initial potential from superposition of free atoms

     starting charge      25.9986, renormalised to      26.0000

     negative rho (up, down):  3.036E-05 0.000E+00
     Starting wfcs are   18 randomized atomic wfcs

     total cpu time spent up to now is       12.1 secs

     per-process dynamical memory:    66.0 Mb

     Self-consistent Calculation

     iteration #  1     ecut=    80.00 Ry     beta= 0.20
     Davidson diagonalization with overlap

---- Real-time Memory Report at c_bands before calling an iterative solver
            87 MiB given to the printing process from OS
            64 MiB allocation reported by mallinfo(arena+hblkhd)
        230947 MiB available memory on the node where the printing process lives
------------------
     ethr =  1.00E-05,  avg # of iterations = 11.6

     negative rho (up, down):  2.368E-05 0.000E+00

     total cpu time spent up to now is       17.0 secs

     total energy              =    -184.80574691 Ry
     estimated scf accuracy    <       0.41910012 Ry

     iteration #  2     ecut=    80.00 Ry     beta= 0.20
     Davidson diagonalization with overlap

---- Real-time Memory Report at c_bands before calling an iterative solver
            93 MiB given to the printing process from OS
            67 MiB allocation reported by mallinfo(arena+hblkhd)
        230291 MiB available memory on the node where the printing process lives
------------------
     ethr =  1.61E-03,  avg # of iterations =  2.1

     negative rho (up, down):  1.246E-05 0.000E+00

     total cpu time spent up to now is       17.1 secs

     total energy              =    -184.82584627 Ry
     estimated scf accuracy    <       0.07883393 Ry

     iteration #  3     ecut=    80.00 Ry     beta= 0.20
     Davidson diagonalization with overlap

---- Real-time Memory Report at c_bands before calling an iterative solver
            94 MiB given to the printing process from OS
            67 MiB allocation reported by mallinfo(arena+hblkhd)
        230280 MiB available memory on the node where the printing process lives
------------------
     ethr =  3.03E-04,  avg # of iterations =  2.4

     negative rho (up, down):  4.622E-06 0.000E+00

     total cpu time spent up to now is       17.1 secs

     total energy              =    -184.82405954 Ry
     estimated scf accuracy    <       0.02364731 Ry

     iteration #  4     ecut=    80.00 Ry     beta= 0.20
     Davidson diagonalization with overlap

---- Real-time Memory Report at c_bands before calling an iterative solver
            95 MiB given to the printing process from OS
            67 MiB allocation reported by mallinfo(arena+hblkhd)
        230277 MiB available memory on the node where the printing process lives
------------------
     ethr =  9.10E-05,  avg # of iterations =  4.1

     negative rho (up, down):  3.103E-06 0.000E+00

     total cpu time spent up to now is       17.2 secs

     total energy              =    -184.83075046 Ry
     estimated scf accuracy    <       0.00533316 Ry

     iteration #  5     ecut=    80.00 Ry     beta= 0.20
     Davidson diagonalization with overlap

---- Real-time Memory Report at c_bands before calling an iterative solver
            95 MiB given to the printing process from OS
            67 MiB allocation reported by mallinfo(arena+hblkhd)
        230267 MiB available memory on the node where the printing process lives
------------------
     ethr =  2.05E-05,  avg # of iterations =  3.9

     negative rho (up, down):  1.018E-07 0.000E+00

     total cpu time spent up to now is       17.3 secs

     total energy              =    -184.83202656 Ry
     estimated scf accuracy    <       0.00190078 Ry

     iteration #  6     ecut=    80.00 Ry     beta= 0.20
     Davidson diagonalization with overlap

---- Real-time Memory Report at c_bands before calling an iterative solver
            96 MiB given to the printing process from OS
            67 MiB allocation reported by mallinfo(arena+hblkhd)
        230263 MiB available memory on the node where the printing process lives
------------------
     ethr =  7.31E-06,  avg # of iterations =  4.0

     negative rho (up, down):  3.422E-08 0.000E+00

     total cpu time spent up to now is       17.3 secs

     total energy              =    -184.83114047 Ry
     estimated scf accuracy    <       0.00360917 Ry

     iteration #  7     ecut=    80.00 Ry     beta= 0.20
     Davidson diagonalization with overlap

---- Real-time Memory Report at c_bands before calling an iterative solver
            96 MiB given to the printing process from OS
            67 MiB allocation reported by mallinfo(arena+hblkhd)
        230258 MiB available memory on the node where the printing process lives
------------------
     ethr =  7.31E-06,  avg # of iterations =  4.2

     negative rho (up, down):  3.104E-08 0.000E+00

     total cpu time spent up to now is       17.4 secs

     total energy              =    -184.83181215 Ry
     estimated scf accuracy    <       0.00001430 Ry

     iteration #  8     ecut=    80.00 Ry     beta= 0.20
     Davidson diagonalization with overlap

---- Real-time Memory Report at c_bands before calling an iterative solver
            96 MiB given to the printing process from OS
            67 MiB allocation reported by mallinfo(arena+hblkhd)
        230254 MiB available memory on the node where the printing process lives
------------------
     ethr =  5.50E-08,  avg # of iterations =  9.2

     negative rho (up, down):  4.689E-08 0.000E+00

     total cpu time spent up to now is       17.4 secs

     total energy              =    -184.83175927 Ry
     estimated scf accuracy    <       0.00042632 Ry

     iteration #  9     ecut=    80.00 Ry     beta= 0.20
     Davidson diagonalization with overlap

---- Real-time Memory Report at c_bands before calling an iterative solver
            97 MiB given to the printing process from OS
            68 MiB allocation reported by mallinfo(arena+hblkhd)
        230244 MiB available memory on the node where the printing process lives
------------------
     ethr =  5.50E-08,  avg # of iterations =  7.6

     total cpu time spent up to now is       17.5 secs

     total energy              =    -184.83183649 Ry
     estimated scf accuracy    <       0.00002428 Ry

     iteration # 10     ecut=    80.00 Ry     beta= 0.20
     Davidson diagonalization with overlap

---- Real-time Memory Report at c_bands before calling an iterative solver
            97 MiB given to the printing process from OS
            68 MiB allocation reported by mallinfo(arena+hblkhd)
        230242 MiB available memory on the node where the printing process lives
------------------
     ethr =  5.50E-08,  avg # of iterations =  2.2

     total cpu time spent up to now is       17.6 secs

     total energy              =    -184.83183544 Ry
     estimated scf accuracy    <       0.00000618 Ry

     iteration # 11     ecut=    80.00 Ry     beta= 0.20
     Davidson diagonalization with overlap

---- Real-time Memory Report at c_bands before calling an iterative solver
            97 MiB given to the printing process from OS
            68 MiB allocation reported by mallinfo(arena+hblkhd)
        230241 MiB available memory on the node where the printing process lives
------------------
     ethr =  2.38E-08,  avg # of iterations =  4.8

     total cpu time spent up to now is       17.6 secs

     total energy              =    -184.83183814 Ry
     estimated scf accuracy    <       0.00000231 Ry

     iteration # 12     ecut=    80.00 Ry     beta= 0.20
     Davidson diagonalization with overlap

---- Real-time Memory Report at c_bands before calling an iterative solver
            97 MiB given to the printing process from OS
            68 MiB allocation reported by mallinfo(arena+hblkhd)
        230240 MiB available memory on the node where the printing process lives
------------------
     ethr =  8.88E-09,  avg # of iterations =  1.1

     total cpu time spent up to now is       17.7 secs

     total energy              =    -184.83183851 Ry
     estimated scf accuracy    <       0.00000201 Ry

     iteration # 13     ecut=    80.00 Ry     beta= 0.20
     Davidson diagonalization with overlap

---- Real-time Memory Report at c_bands before calling an iterative solver
            97 MiB given to the printing process from OS
            68 MiB allocation reported by mallinfo(arena+hblkhd)
        230240 MiB available memory on the node where the printing process lives
------------------
     ethr =  7.71E-09,  avg # of iterations =  1.6

     total cpu time spent up to now is       17.7 secs

     total energy              =    -184.83183849 Ry
     estimated scf accuracy    <       0.00000358 Ry

     iteration # 14     ecut=    80.00 Ry     beta= 0.20
     Davidson diagonalization with overlap

---- Real-time Memory Report at c_bands before calling an iterative solver
            97 MiB given to the printing process from OS
            68 MiB allocation reported by mallinfo(arena+hblkhd)
        230238 MiB available memory on the node where the printing process lives
------------------
     ethr =  7.71E-09,  avg # of iterations =  1.0

     total cpu time spent up to now is       17.7 secs

     total energy              =    -184.83183800 Ry
     estimated scf accuracy    <       0.00000358 Ry

     iteration # 15     ecut=    80.00 Ry     beta= 0.20
     Davidson diagonalization with overlap

---- Real-time Memory Report at c_bands before calling an iterative solver
            97 MiB given to the printing process from OS
            68 MiB allocation reported by mallinfo(arena+hblkhd)
        230238 MiB available memory on the node where the printing process lives
------------------
     ethr =  7.71E-09,  avg # of iterations =  1.2

     total cpu time spent up to now is       17.8 secs

     total energy              =    -184.83183795 Ry
     estimated scf accuracy    <       0.00000208 Ry

     iteration # 16     ecut=    80.00 Ry     beta= 0.20
     Davidson diagonalization with overlap

---- Real-time Memory Report at c_bands before calling an iterative solver
            97 MiB given to the printing process from OS
            68 MiB allocation reported by mallinfo(arena+hblkhd)
        230237 MiB available memory on the node where the printing process lives
------------------
     ethr =  7.71E-09,  avg # of iterations =  1.0

     negative rho (up, down):  6.076E-08 0.000E+00

     total cpu time spent up to now is       17.9 secs

     total energy              =    -184.83183732 Ry
     estimated scf accuracy    <       0.00000172 Ry

     iteration # 17     ecut=    80.00 Ry     beta= 0.20
     Davidson diagonalization with overlap

---- Real-time Memory Report at c_bands before calling an iterative solver
            97 MiB given to the printing process from OS
            68 MiB allocation reported by mallinfo(arena+hblkhd)
        230237 MiB available memory on the node where the printing process lives
------------------
     ethr =  6.61E-09,  avg # of iterations =  4.4

     negative rho (up, down):  5.324E-08 0.000E+00

     total cpu time spent up to now is       17.9 secs

     total energy              =    -184.83183784 Ry
     estimated scf accuracy    <       0.00000024 Ry

     iteration # 18     ecut=    80.00 Ry     beta= 0.20
     Davidson diagonalization with overlap

---- Real-time Memory Report at c_bands before calling an iterative solver
            97 MiB given to the printing process from OS
            68 MiB allocation reported by mallinfo(arena+hblkhd)
        230235 MiB available memory on the node where the printing process lives
------------------
     ethr =  9.38E-10,  avg # of iterations =  2.0

     negative rho (up, down):  5.615E-08 0.000E+00

     total cpu time spent up to now is       18.0 secs

     total energy              =    -184.83183779 Ry
     estimated scf accuracy    <       0.00000015 Ry

     iteration # 19     ecut=    80.00 Ry     beta= 0.20
     Davidson diagonalization with overlap

---- Real-time Memory Report at c_bands before calling an iterative solver
            97 MiB given to the printing process from OS
            68 MiB allocation reported by mallinfo(arena+hblkhd)
        230234 MiB available memory on the node where the printing process lives
------------------
     ethr =  5.59E-10,  avg # of iterations =  4.6

     negative rho (up, down):  1.847E-08 0.000E+00

     total cpu time spent up to now is       18.0 secs

     total energy              =    -184.83183785 Ry
     estimated scf accuracy    <       0.00000003 Ry

     iteration # 20     ecut=    80.00 Ry     beta= 0.20
     Davidson diagonalization with overlap

---- Real-time Memory Report at c_bands before calling an iterative solver
            97 MiB given to the printing process from OS
            68 MiB allocation reported by mallinfo(arena+hblkhd)
        230234 MiB available memory on the node where the printing process lives
------------------
     ethr =  1.25E-10,  avg # of iterations =  1.8

     negative rho (up, down):  2.062E-08 0.000E+00

     total cpu time spent up to now is       18.1 secs

     total energy              =    -184.83183783 Ry
     estimated scf accuracy    <       0.00000004 Ry

     iteration # 21     ecut=    80.00 Ry     beta= 0.20
     Davidson diagonalization with overlap

---- Real-time Memory Report at c_bands before calling an iterative solver
            97 MiB given to the printing process from OS
            68 MiB allocation reported by mallinfo(arena+hblkhd)
        230232 MiB available memory on the node where the printing process lives
------------------
     ethr =  1.25E-10,  avg # of iterations =  4.3

     negative rho (up, down):  1.301E-08 0.000E+00

     total cpu time spent up to now is       18.1 secs

     total energy              =    -184.83183784 Ry
     estimated scf accuracy    <          1.9E-09 Ry

     iteration # 22     ecut=    80.00 Ry     beta= 0.20
     Davidson diagonalization with overlap

---- Real-time Memory Report at c_bands before calling an iterative solver
            98 MiB given to the printing process from OS
            68 MiB allocation reported by mallinfo(arena+hblkhd)
        230232 MiB available memory on the node where the printing process lives
------------------
     ethr =  7.35E-12,  avg # of iterations =  6.1

     total cpu time spent up to now is       18.2 secs

     total energy              =    -184.83183784 Ry
     estimated scf accuracy    <       0.00000002 Ry

     iteration # 23     ecut=    80.00 Ry     beta= 0.20
     Davidson diagonalization with overlap

---- Real-time Memory Report at c_bands before calling an iterative solver
            98 MiB given to the printing process from OS
            68 MiB allocation reported by mallinfo(arena+hblkhd)
        230236 MiB available memory on the node where the printing process lives
------------------
     ethr =  7.35E-12,  avg # of iterations =  6.3

     total cpu time spent up to now is       18.2 secs

     total energy              =    -184.83183784 Ry
     estimated scf accuracy    <          1.1E-09 Ry

     iteration # 24     ecut=    80.00 Ry     beta= 0.20
     Davidson diagonalization with overlap

---- Real-time Memory Report at c_bands before calling an iterative solver
            98 MiB given to the printing process from OS
            68 MiB allocation reported by mallinfo(arena+hblkhd)
        230235 MiB available memory on the node where the printing process lives
------------------
     ethr =  4.37E-12,  avg # of iterations =  1.7

     total cpu time spent up to now is       18.3 secs

     total energy              =    -184.83183784 Ry
     estimated scf accuracy    <          4.1E-10 Ry

     iteration # 25     ecut=    80.00 Ry     beta= 0.20
     Davidson diagonalization with overlap

---- Real-time Memory Report at c_bands before calling an iterative solver
            98 MiB given to the printing process from OS
            68 MiB allocation reported by mallinfo(arena+hblkhd)
        230234 MiB available memory on the node where the printing process lives
------------------
     ethr =  1.58E-12,  avg # of iterations =  6.1

     total cpu time spent up to now is       18.3 secs

     total energy              =    -184.83183784 Ry
     estimated scf accuracy    <          1.7E-09 Ry

     iteration # 26     ecut=    80.00 Ry     beta= 0.20
     Davidson diagonalization with overlap

---- Real-time Memory Report at c_bands before calling an iterative solver
            98 MiB given to the printing process from OS
            68 MiB allocation reported by mallinfo(arena+hblkhd)
        230233 MiB available memory on the node where the printing process lives
------------------
     ethr =  1.58E-12,  avg # of iterations =  2.7

     total cpu time spent up to now is       18.4 secs

     total energy              =    -184.83183784 Ry
     estimated scf accuracy    <          6.6E-10 Ry

     iteration # 27     ecut=    80.00 Ry     beta= 0.20
     Davidson diagonalization with overlap

---- Real-time Memory Report at c_bands before calling an iterative solver
            98 MiB given to the printing process from OS
            68 MiB allocation reported by mallinfo(arena+hblkhd)
        230232 MiB available memory on the node where the printing process lives
------------------
     ethr =  1.58E-12,  avg # of iterations =  1.4

     total cpu time spent up to now is       18.4 secs

     total energy              =    -184.83183784 Ry
     estimated scf accuracy    <          4.2E-10 Ry

     iteration # 28     ecut=    80.00 Ry     beta= 0.20
     Davidson diagonalization with overlap

---- Real-time Memory Report at c_bands before calling an iterative solver
            98 MiB given to the printing process from OS
            68 MiB allocation reported by mallinfo(arena+hblkhd)
        230232 MiB available memory on the node where the printing process lives
------------------
     ethr =  1.58E-12,  avg # of iterations =  1.0

     total cpu time spent up to now is       18.5 secs

     total energy              =    -184.83183784 Ry
     estimated scf accuracy    <          4.8E-10 Ry

     iteration # 29     ecut=    80.00 Ry     beta= 0.20
     Davidson diagonalization with overlap

---- Real-time Memory Report at c_bands before calling an iterative solver
            98 MiB given to the printing process from OS
            68 MiB allocation reported by mallinfo(arena+hblkhd)
        230232 MiB available memory on the node where the printing process lives
------------------
     ethr =  1.58E-12,  avg # of iterations =  2.4

     total cpu time spent up to now is       18.5 secs

     total energy              =    -184.83183784 Ry
     estimated scf accuracy    <          4.6E-11 Ry

     iteration # 30     ecut=    80.00 Ry     beta= 0.20
     Davidson diagonalization with overlap

---- Real-time Memory Report at c_bands before calling an iterative solver
            98 MiB given to the printing process from OS
            68 MiB allocation reported by mallinfo(arena+hblkhd)
        230232 MiB available memory on the node where the printing process lives
------------------
     ethr =  1.75E-13,  avg # of iterations =  5.9

     total cpu time spent up to now is       18.6 secs

     total energy              =    -184.83183784 Ry
     estimated scf accuracy    <          9.7E-11 Ry

     iteration # 31     ecut=    80.00 Ry     beta= 0.20
     Davidson diagonalization with overlap

---- Real-time Memory Report at c_bands before calling an iterative solver
            98 MiB given to the printing process from OS
            68 MiB allocation reported by mallinfo(arena+hblkhd)
        230232 MiB available memory on the node where the printing process lives
------------------
     ethr =  1.75E-13,  avg # of iterations =  2.0

     total cpu time spent up to now is       18.6 secs

     total energy              =    -184.83183784 Ry
     estimated scf accuracy    <          4.3E-11 Ry

     iteration # 32     ecut=    80.00 Ry     beta= 0.20
     Davidson diagonalization with overlap

---- Real-time Memory Report at c_bands before calling an iterative solver
            98 MiB given to the printing process from OS
            68 MiB allocation reported by mallinfo(arena+hblkhd)
        230232 MiB available memory on the node where the printing process lives
------------------
     ethr =  1.64E-13,  avg # of iterations =  1.0

     total cpu time spent up to now is       18.7 secs

     total energy              =    -184.83183784 Ry
     estimated scf accuracy    <          3.9E-11 Ry

     iteration # 33     ecut=    80.00 Ry     beta= 0.20
     Davidson diagonalization with overlap

---- Real-time Memory Report at c_bands before calling an iterative solver
            98 MiB given to the printing process from OS
            68 MiB allocation reported by mallinfo(arena+hblkhd)
        230232 MiB available memory on the node where the printing process lives
------------------
     ethr =  1.50E-13,  avg # of iterations =  1.0

     total cpu time spent up to now is       18.7 secs

     total energy              =    -184.83183784 Ry
     estimated scf accuracy    <          5.7E-11 Ry

     iteration # 34     ecut=    80.00 Ry     beta= 0.20
     Davidson diagonalization with overlap

---- Real-time Memory Report at c_bands before calling an iterative solver
            98 MiB given to the printing process from OS
            68 MiB allocation reported by mallinfo(arena+hblkhd)
        230232 MiB available memory on the node where the printing process lives
------------------
     ethr =  1.50E-13,  avg # of iterations =  1.0

     total cpu time spent up to now is       18.8 secs

     total energy              =    -184.83183784 Ry
     estimated scf accuracy    <          4.7E-11 Ry

     iteration # 35     ecut=    80.00 Ry     beta= 0.20
     Davidson diagonalization with overlap

---- Real-time Memory Report at c_bands before calling an iterative solver
            98 MiB given to the printing process from OS
            68 MiB allocation reported by mallinfo(arena+hblkhd)
        230231 MiB available memory on the node where the printing process lives
------------------
     ethr =  1.50E-13,  avg # of iterations =  1.0

     total cpu time spent up to now is       18.8 secs

     total energy              =    -184.83183784 Ry
     estimated scf accuracy    <          6.0E-11 Ry

     iteration # 36     ecut=    80.00 Ry     beta= 0.20
     Davidson diagonalization with overlap

---- Real-time Memory Report at c_bands before calling an iterative solver
            98 MiB given to the printing process from OS
            68 MiB allocation reported by mallinfo(arena+hblkhd)
        230231 MiB available memory on the node where the printing process lives
------------------
     ethr =  1.50E-13,  avg # of iterations =  2.3

     total cpu time spent up to now is       18.9 secs

     total energy              =    -184.83183784 Ry
     estimated scf accuracy    <          1.1E-11 Ry

     iteration # 37     ecut=    80.00 Ry     beta= 0.20
     Davidson diagonalization with overlap

---- Real-time Memory Report at c_bands before calling an iterative solver
            98 MiB given to the printing process from OS
            68 MiB allocation reported by mallinfo(arena+hblkhd)
        230231 MiB available memory on the node where the printing process lives
------------------
     ethr =  1.00E-13,  avg # of iterations =  1.2

     total cpu time spent up to now is       18.9 secs

     total energy              =    -184.83183784 Ry
     estimated scf accuracy    <          6.5E-12 Ry

     iteration # 38     ecut=    80.00 Ry     beta= 0.20
     Davidson diagonalization with overlap

---- Real-time Memory Report at c_bands before calling an iterative solver
            98 MiB given to the printing process from OS
            68 MiB allocation reported by mallinfo(arena+hblkhd)
        230231 MiB available memory on the node where the printing process lives
------------------
     ethr =  1.00E-13,  avg # of iterations =  1.4

     total cpu time spent up to now is       19.0 secs

     total energy              =    -184.83183784 Ry
     estimated scf accuracy    <          2.1E-12 Ry

     iteration # 39     ecut=    80.00 Ry     beta= 0.20
     Davidson diagonalization with overlap

---- Real-time Memory Report at c_bands before calling an iterative solver
            98 MiB given to the printing process from OS
            68 MiB allocation reported by mallinfo(arena+hblkhd)
        230231 MiB available memory on the node where the printing process lives
------------------
     ethr =  1.00E-13,  avg # of iterations =  1.7

     total cpu time spent up to now is       19.0 secs

     total energy              =    -184.83183784 Ry
     estimated scf accuracy    <          6.1E-14 Ry

     iteration # 40     ecut=    80.00 Ry     beta= 0.20
     Davidson diagonalization with overlap

---- Real-time Memory Report at c_bands before calling an iterative solver
            98 MiB given to the printing process from OS
            68 MiB allocation reported by mallinfo(arena+hblkhd)
        230231 MiB available memory on the node where the printing process lives
------------------
     ethr =  1.00E-13,  avg # of iterations =  1.0

     total cpu time spent up to now is       19.0 secs

     total energy              =    -184.83183784 Ry
     estimated scf accuracy    <          4.1E-14 Ry

     iteration # 41     ecut=    80.00 Ry     beta= 0.20
     Davidson diagonalization with overlap

---- Real-time Memory Report at c_bands before calling an iterative solver
            98 MiB given to the printing process from OS
            68 MiB allocation reported by mallinfo(arena+hblkhd)
        230231 MiB available memory on the node where the printing process lives
------------------
     ethr =  1.00E-13,  avg # of iterations =  1.0

     total cpu time spent up to now is       19.1 secs

     total energy              =    -184.83183784 Ry
     estimated scf accuracy    <          4.5E-14 Ry

     iteration # 42     ecut=    80.00 Ry     beta= 0.20
     Davidson diagonalization with overlap

---- Real-time Memory Report at c_bands before calling an iterative solver
            98 MiB given to the printing process from OS
            68 MiB allocation reported by mallinfo(arena+hblkhd)
        230230 MiB available memory on the node where the printing process lives
------------------
     ethr =  1.00E-13,  avg # of iterations =  1.0

     total cpu time spent up to now is       19.1 secs

     total energy              =    -184.83183784 Ry
     estimated scf accuracy    <          8.0E-14 Ry

     iteration # 43     ecut=    80.00 Ry     beta= 0.20
     Davidson diagonalization with overlap

---- Real-time Memory Report at c_bands before calling an iterative solver
            98 MiB given to the printing process from OS
            68 MiB allocation reported by mallinfo(arena+hblkhd)
        230230 MiB available memory on the node where the printing process lives
------------------
     ethr =  1.00E-13,  avg # of iterations =  1.0

     total cpu time spent up to now is       19.2 secs

     total energy              =    -184.83183784 Ry
     estimated scf accuracy    <          9.9E-14 Ry

     iteration # 44     ecut=    80.00 Ry     beta= 0.20
     Davidson diagonalization with overlap

---- Real-time Memory Report at c_bands before calling an iterative solver
            98 MiB given to the printing process from OS
            68 MiB allocation reported by mallinfo(arena+hblkhd)
        230230 MiB available memory on the node where the printing process lives
------------------
     ethr =  1.00E-13,  avg # of iterations =  1.0

     total cpu time spent up to now is       19.2 secs

     total energy              =    -184.83183784 Ry
     estimated scf accuracy    <          1.2E-13 Ry

     iteration # 45     ecut=    80.00 Ry     beta= 0.20
     Davidson diagonalization with overlap

---- Real-time Memory Report at c_bands before calling an iterative solver
            98 MiB given to the printing process from OS
            68 MiB allocation reported by mallinfo(arena+hblkhd)
        230230 MiB available memory on the node where the printing process lives
------------------
     ethr =  1.00E-13,  avg # of iterations =  1.0

     total cpu time spent up to now is       19.3 secs

     total energy              =    -184.83183784 Ry
     estimated scf accuracy    <          4.3E-12 Ry

     iteration # 46     ecut=    80.00 Ry     beta= 0.20
     Davidson diagonalization with overlap

---- Real-time Memory Report at c_bands before calling an iterative solver
            98 MiB given to the printing process from OS
            68 MiB allocation reported by mallinfo(arena+hblkhd)
        230230 MiB available memory on the node where the printing process lives
------------------
     ethr =  1.00E-13,  avg # of iterations =  1.0

     total cpu time spent up to now is       19.3 secs

     total energy              =    -184.83183784 Ry
     estimated scf accuracy    <          3.2E-12 Ry

     iteration # 47     ecut=    80.00 Ry     beta= 0.20
     Davidson diagonalization with overlap

---- Real-time Memory Report at c_bands before calling an iterative solver
            98 MiB given to the printing process from OS
            68 MiB allocation reported by mallinfo(arena+hblkhd)
        230229 MiB available memory on the node where the printing process lives
------------------
     ethr =  1.00E-13,  avg # of iterations =  1.0

     total cpu time spent up to now is       19.4 secs

     total energy              =    -184.83183784 Ry
     estimated scf accuracy    <          3.1E-12 Ry

     iteration # 48     ecut=    80.00 Ry     beta= 0.20
     Davidson diagonalization with overlap

---- Real-time Memory Report at c_bands before calling an iterative solver
            98 MiB given to the printing process from OS
            68 MiB allocation reported by mallinfo(arena+hblkhd)
        230229 MiB available memory on the node where the printing process lives
------------------
     ethr =  1.00E-13,  avg # of iterations =  1.0

     total cpu time spent up to now is       19.4 secs

     total energy              =    -184.83183784 Ry
     estimated scf accuracy    <          3.1E-12 Ry

     iteration # 49     ecut=    80.00 Ry     beta= 0.20
     Davidson diagonalization with overlap

---- Real-time Memory Report at c_bands before calling an iterative solver
            98 MiB given to the printing process from OS
            68 MiB allocation reported by mallinfo(arena+hblkhd)
        230229 MiB available memory on the node where the printing process lives
------------------
     ethr =  1.00E-13,  avg # of iterations =  1.0

     total cpu time spent up to now is       19.4 secs

     total energy              =    -184.83183784 Ry
     estimated scf accuracy    <          4.5E-12 Ry

     iteration # 50     ecut=    80.00 Ry     beta= 0.20
     Davidson diagonalization with overlap

---- Real-time Memory Report at c_bands before calling an iterative solver
            98 MiB given to the printing process from OS
            68 MiB allocation reported by mallinfo(arena+hblkhd)
        230229 MiB available memory on the node where the printing process lives
------------------
     ethr =  1.00E-13,  avg # of iterations =  1.0

     total cpu time spent up to now is       19.5 secs

     total energy              =    -184.83183784 Ry
     estimated scf accuracy    <          4.2E-12 Ry

     iteration # 51     ecut=    80.00 Ry     beta= 0.20
     Davidson diagonalization with overlap

---- Real-time Memory Report at c_bands before calling an iterative solver
            98 MiB given to the printing process from OS
            68 MiB allocation reported by mallinfo(arena+hblkhd)
        230229 MiB available memory on the node where the printing process lives
------------------
     ethr =  1.00E-13,  avg # of iterations =  1.0

     total cpu time spent up to now is       19.5 secs

     total energy              =    -184.83183784 Ry
     estimated scf accuracy    <          2.4E-12 Ry

     iteration # 52     ecut=    80.00 Ry     beta= 0.20
     Davidson diagonalization with overlap

---- Real-time Memory Report at c_bands before calling an iterative solver
            98 MiB given to the printing process from OS
            68 MiB allocation reported by mallinfo(arena+hblkhd)
        230229 MiB available memory on the node where the printing process lives
------------------
     ethr =  1.00E-13,  avg # of iterations =  1.0

     total cpu time spent up to now is       19.6 secs

     total energy              =    -184.83183784 Ry
     estimated scf accuracy    <          3.9E-13 Ry

     iteration # 53     ecut=    80.00 Ry     beta= 0.20
     Davidson diagonalization with overlap

---- Real-time Memory Report at c_bands before calling an iterative solver
            98 MiB given to the printing process from OS
            68 MiB allocation reported by mallinfo(arena+hblkhd)
        230229 MiB available memory on the node where the printing process lives
------------------
     ethr =  1.00E-13,  avg # of iterations =  1.0

     total cpu time spent up to now is       19.6 secs

     total energy              =    -184.83183784 Ry
     estimated scf accuracy    <          1.9E-13 Ry

     iteration # 54     ecut=    80.00 Ry     beta= 0.20
     Davidson diagonalization with overlap

---- Real-time Memory Report at c_bands before calling an iterative solver
            98 MiB given to the printing process from OS
            68 MiB allocation reported by mallinfo(arena+hblkhd)
        230229 MiB available memory on the node where the printing process lives
------------------
     ethr =  1.00E-13,  avg # of iterations =  1.0

     total cpu time spent up to now is       19.7 secs

     total energy              =    -184.83183784 Ry
     estimated scf accuracy    <          1.9E-14 Ry

     iteration # 55     ecut=    80.00 Ry     beta= 0.20
     Davidson diagonalization with overlap

---- Real-time Memory Report at c_bands before calling an iterative solver
            98 MiB given to the printing process from OS
            68 MiB allocation reported by mallinfo(arena+hblkhd)
        230229 MiB available memory on the node where the printing process lives
------------------
     ethr =  1.00E-13,  avg # of iterations =  1.0

     total cpu time spent up to now is       19.7 secs

     total energy              =    -184.83183784 Ry
     estimated scf accuracy    <          1.2E-14 Ry

     iteration # 56     ecut=    80.00 Ry     beta= 0.20
     Davidson diagonalization with overlap

---- Real-time Memory Report at c_bands before calling an iterative solver
            98 MiB given to the printing process from OS
            68 MiB allocation reported by mallinfo(arena+hblkhd)
        230229 MiB available memory on the node where the printing process lives
------------------
     ethr =  1.00E-13,  avg # of iterations =  1.0

     total cpu time spent up to now is       19.8 secs

     total energy              =    -184.83183784 Ry
     estimated scf accuracy    <          2.5E-14 Ry

     iteration # 57     ecut=    80.00 Ry     beta= 0.20
     Davidson diagonalization with overlap

---- Real-time Memory Report at c_bands before calling an iterative solver
            98 MiB given to the printing process from OS
            68 MiB allocation reported by mallinfo(arena+hblkhd)
        230229 MiB available memory on the node where the printing process lives
------------------
     ethr =  1.00E-13,  avg # of iterations =  1.0

     total cpu time spent up to now is       19.8 secs

     total energy              =    -184.83183784 Ry
     estimated scf accuracy    <          2.9E-14 Ry

     iteration # 58     ecut=    80.00 Ry     beta= 0.20
     Davidson diagonalization with overlap

---- Real-time Memory Report at c_bands before calling an iterative solver
            98 MiB given to the printing process from OS
            68 MiB allocation reported by mallinfo(arena+hblkhd)
        230229 MiB available memory on the node where the printing process lives
------------------
     ethr =  1.00E-13,  avg # of iterations =  1.0

     total cpu time spent up to now is       19.9 secs

     total energy              =    -184.83183784 Ry
     estimated scf accuracy    <          4.2E-13 Ry

     iteration # 59     ecut=    80.00 Ry     beta= 0.20
     Davidson diagonalization with overlap

---- Real-time Memory Report at c_bands before calling an iterative solver
            98 MiB given to the printing process from OS
            68 MiB allocation reported by mallinfo(arena+hblkhd)
        230229 MiB available memory on the node where the printing process lives
------------------
     ethr =  1.00E-13,  avg # of iterations =  1.0

     total cpu time spent up to now is       19.9 secs

     total energy              =    -184.83183784 Ry
     estimated scf accuracy    <          1.4E-13 Ry

     iteration # 60     ecut=    80.00 Ry     beta= 0.20
     Davidson diagonalization with overlap

---- Real-time Memory Report at c_bands before calling an iterative solver
            98 MiB given to the printing process from OS
            68 MiB allocation reported by mallinfo(arena+hblkhd)
        230229 MiB available memory on the node where the printing process lives
------------------
     ethr =  1.00E-13,  avg # of iterations =  1.0

     total cpu time spent up to now is       19.9 secs

     total energy              =    -184.83183784 Ry
     estimated scf accuracy    <          4.3E-15 Ry

     iteration # 61     ecut=    80.00 Ry     beta= 0.20
     Davidson diagonalization with overlap

---- Real-time Memory Report at c_bands before calling an iterative solver
            98 MiB given to the printing process from OS
            68 MiB allocation reported by mallinfo(arena+hblkhd)
        230229 MiB available memory on the node where the printing process lives
------------------
     ethr =  1.00E-13,  avg # of iterations =  1.0

     total cpu time spent up to now is       20.0 secs

     End of self-consistent calculation

          k = 0.0000 0.0000 0.0000 ( 14855 PWs)   bands (ev):

   -66.6805 -40.8879 -40.6208 -40.6208 -20.1892 -18.8271 -11.7363  -8.5817
    -8.5817  -7.8097  -7.4236  -7.4236  -6.0357

     occupation numbers 
     1.0000   1.0000   1.0000   1.0000   1.0000   1.0000   1.0000   1.0000
     1.0000   1.0000   1.0000   1.0000   1.0000

          k = 0.0000 0.0642 0.0000 ( 14853 PWs)   bands (ev):

   -66.6792 -40.8853 -40.6343 -40.6239 -20.1402 -18.8071 -11.6805  -8.6925
    -8.5302  -8.0796  -7.5035  -7.2244  -6.0528

     occupation numbers 
     1.0000   1.0000   1.0000   1.0000   1.0000   1.0000   1.0000   1.0000
     1.0000   1.0000   1.0000   1.0000   1.0000

          k = 0.0000 0.1283 0.0000 ( 14827 PWs)   bands (ev):

   -66.6752 -40.8776 -40.6729 -40.6326 -19.9964 -18.7484 -11.5235  -8.9854
    -8.5059  -8.3804  -7.7157  -7.0359  -6.1242

     occupation numbers 
     1.0000   1.0000   1.0000   1.0000   1.0000   1.0000   1.0000   1.0000
     1.0000   1.0000   1.0000   1.0000   1.0000

          k = 0.0000 0.1925 0.0000 ( 14809 PWs)   bands (ev):

   -66.6692 -40.8659 -40.7315 -40.6459 -19.7678 -18.6552 -11.3047  -9.3655
    -8.9572  -8.1468  -8.0019  -7.0280  -6.2972

     occupation numbers 
     1.0000   1.0000   1.0000   1.0000   1.0000   1.0000   1.0000   1.0000
     1.0000   1.0000   1.0000   1.0000   1.0000

          k = 0.0000 0.2566 0.0000 ( 14773 PWs)   bands (ev):

   -66.6619 -40.8515 -40.8027 -40.6622 -19.4712 -18.5349 -11.1196  -9.7064
    -9.4143  -8.3072  -7.8550  -7.1842  -6.5805

     occupation numbers 
     1.0000   1.0000   1.0000   1.0000   1.0000   1.0000   1.0000   1.0000
     1.0000   1.0000   1.0000   1.0000   1.0000

          k = 0.0000 0.3208 0.0000 ( 14795 PWs)   bands (ev):

   -66.6540 -40.8776 -40.8361 -40.6795 -19.1312 -18.3985 -11.1287  -9.8728
    -9.8618  -8.5928  -7.5418  -7.4074  -6.8672

     occupation numbers 
     1.0000   1.0000   1.0000   1.0000   1.0000   1.0000   1.0000   1.0000
     1.0000   1.0000   1.0000   1.0000   1.0000

          k = 0.0000 0.3849 0.0000 ( 14740 PWs)   bands (ev):

   -66.6466 -40.9473 -40.8216 -40.6957 -18.7820 -18.2611 -11.3513 -10.2724
    -9.9110  -8.8338  -7.6129  -7.2520  -6.9904

     occupation numbers 
     1.0000   1.0000   1.0000   1.0000   1.0000   1.0000   1.0000   1.0000
     1.0000   1.0000   1.0000   1.0000   1.0000

          k = 0.0000 0.4491 0.0000 ( 14694 PWs)   bands (ev):

   -66.6405 -41.0035 -40.8097 -40.7089 -18.4690 -18.1413 -11.6260 -10.6080
    -9.9848  -9.0148  -7.7629  -7.0268  -6.8929

     occupation numbers 
     1.0000   1.0000   1.0000   1.0000   1.0000   1.0000   1.0000   1.0000
     1.0000   1.0000   1.0000   1.0000   1.0000

          k = 0.0000 0.5132 0.0000 ( 14688 PWs)   bands (ev):

   -66.6366 -41.0400 -40.8020 -40.7174 -18.2467 -18.0586 -11.8352 -10.8293
   -10.0834  -9.1267  -7.8502  -6.8896  -6.7070

     occupation numbers 
     1.0000   1.0000   1.0000   1.0000   1.0000   1.0000   1.0000   1.0000
     1.0000   1.0000   1.0000   1.0000   1.0000

          k = 0.0000-0.5774 0.0000 ( 14702 PWs)   bands (ev):

   -66.6352 -41.0526 -40.7993 -40.7204 -18.1655 -18.0290 -11.9130 -10.9067
   -10.1272  -9.1645  -7.8785  -6.8444  -6.6180

     occupation numbers 
     1.0000   1.0000   1.0000   1.0000   1.0000   1.0000   1.0000   1.0000
     1.0000   1.0000   1.0000   1.0000   1.0000

          k = 0.0556 0.0962 0.0000 ( 14837 PWs)   bands (ev):

   -66.6765 -40.8801 -40.6600 -40.6301 -20.0438 -18.7677 -11.5737  -8.8930
    -8.4307  -8.3791  -7.6777  -7.0484  -6.0969

     occupation numbers 
     1.0000   1.0000   1.0000   1.0000   1.0000   1.0000   1.0000   1.0000
     1.0000   1.0000   1.0000   1.0000   1.0000

          k = 0.0556 0.1604 0.0000 ( 14812 PWs)   bands (ev):

   -66.6716 -40.8704 -40.7077 -40.6419 -19.8575 -18.6917 -11.3829  -9.2253
    -8.7654  -8.2445  -7.9854  -6.9346  -6.2193

     occupation numbers 
     1.0000   1.0000   1.0000   1.0000   1.0000   1.0000   1.0000   1.0000
     1.0000   1.0000   1.0000   1.0000   1.0000

          k = 0.0556 0.2245 0.0000 ( 14784 PWs)   bands (ev):

   -66.6649 -40.8574 -40.7715 -40.6579 -19.5945 -18.5846 -11.1704  -9.5810
    -9.1862  -8.3281  -7.9972  -6.9872  -6.4512

     occupation numbers 
     1.0000   1.0000   1.0000   1.0000   1.0000   1.0000   1.0000   1.0000
     1.0000   1.0000   1.0000   1.0000   1.0000

          k = 0.0556 0.2887 0.0000 ( 14788 PWs)   bands (ev):

   -66.6572 -40.8432 -40.8424 -40.6761 -19.2755 -18.4555 -11.0717  -9.8201
    -9.6317  -8.6318  -7.7361  -7.1747  -6.7339

     occupation numbers 
     1.0000   1.0000   1.0000   1.0000   1.0000   1.0000   1.0000   1.0000
     1.0000   1.0000   1.0000   1.0000   1.0000

          k = 0.0556 0.3528 0.0000 ( 14772 PWs)   bands (ev):

   -66.6496 -40.9141 -40.8275 -40.6941 -18.9293 -18.3172 -11.2046 -10.0750
    -9.8776  -8.8643  -7.5341  -7.4095  -6.8879

     occupation numbers 
     1.0000   1.0000   1.0000   1.0000   1.0000   1.0000   1.0000   1.0000
     1.0000   1.0000   1.0000   1.0000   1.0000

          k = 0.0556 0.4170 0.0000 ( 14734 PWs)   bands (ev):

   -66.6429 -40.9759 -40.8143 -40.7100 -18.5953 -18.1867 -11.4636 -10.4690
    -9.9156  -9.0253  -7.6223  -7.3994  -6.8095

     occupation numbers 
     1.0000   1.0000   1.0000   1.0000   1.0000   1.0000   1.0000   1.0000
     1.0000   1.0000   1.0000   1.0000   1.0000

          k = 0.0556 0.4811 0.0000 ( 14699 PWs)   bands (ev):

   -66.6379 -41.0214 -40.8045 -40.7217 -18.3240 -18.0834 -11.7049 -10.7647
   -10.0143  -9.1249  -7.7766  -7.2600  -6.6321

     occupation numbers 
     1.0000   1.0000   1.0000   1.0000   1.0000   1.0000   1.0000   1.0000
     1.0000   1.0000   1.0000   1.0000   1.0000

          k = 0.0556 0.5453 0.0000 ( 14686 PWs)   bands (ev):

   -66.6352 -41.0455 -40.7993 -40.7279 -18.1693 -18.0259 -11.8472 -10.9233
   -10.0970  -9.1722  -7.8565  -7.1677  -6.4917

     occupation numbers 
     1.0000   1.0000   1.0000   1.0000   1.0000   1.0000   1.0000   1.0000
     1.0000   1.0000   1.0000   1.0000   1.0000

          k = 0.1111 0.1925 0.0000 ( 14787 PWs)   bands (ev):

   -66.6659 -40.8594 -40.7591 -40.6579 -19.6366 -18.6015 -11.1906  -9.5273
    -9.0567  -8.4266  -8.0567  -6.8566  -6.4032

     occupation numbers 
     1.0000   1.0000   1.0000   1.0000   1.0000   1.0000   1.0000   1.0000
     1.0000   1.0000   1.0000   1.0000   1.0000

          k = 0.1111 0.2566 0.0000 ( 14773 PWs)   bands (ev):

   -66.6590 -40.8458 -40.8208 -40.6783 -19.3504 -18.4847 -11.0422  -9.7695
    -9.4064  -8.8375  -7.8803  -6.9194  -6.6441

     occupation numbers 
     1.0000   1.0000   1.0000   1.0000   1.0000   1.0000   1.0000   1.0000
     1.0000   1.0000   1.0000   1.0000   1.0000

          k = 0.1111 0.3208 0.0000 ( 14765 PWs)   bands (ev):

   -66.6516 -40.8855 -40.8314 -40.7002 -19.0230 -18.3519 -11.0769  -9.8608
    -9.8353  -9.0765  -7.8115  -7.1133  -6.7990

     occupation numbers 
     1.0000   1.0000   1.0000   1.0000   1.0000   1.0000   1.0000   1.0000
     1.0000   1.0000   1.0000   1.0000   1.0000

          k = 0.1111 0.3849 0.0000 ( 14746 PWs)   bands (ev):

   -66.6446 -40.9456 -40.8177 -40.7209 -18.6880 -18.2174 -11.2753 -10.3269
    -9.8197  -9.1804  -7.8351  -7.3669  -6.7625

     occupation numbers 
     1.0000   1.0000   1.0000   1.0000   1.0000   1.0000   1.0000   1.0000
     1.0000   1.0000   1.0000   1.0000   1.0000

          k = 0.1111 0.4491 0.0000 ( 14720 PWs)   bands (ev):

   -66.6389 -40.9942 -40.8066 -40.7377 -18.3894 -18.0996 -11.5006 -10.7120
    -9.8900  -9.2085  -7.8020  -7.6101  -6.6099

     occupation numbers 
     1.0000   1.0000   1.0000   1.0000   1.0000   1.0000   1.0000   1.0000
     1.0000   1.0000   1.0000   1.0000   1.0000

          k = 0.1111 0.5132 0.0000 ( 14709 PWs)   bands (ev):

   -66.6352 -41.0257 -40.7993 -40.7487 -18.1786 -18.0181 -11.6670 -10.9635
   -10.0065  -9.2005  -7.7871  -7.7305  -6.4353

     occupation numbers 
     1.0000   1.0000   1.0000   1.0000   1.0000   1.0000   1.0000   1.0000
     1.0000   1.0000   1.0000   1.0000   1.0000

          k = 0.1111 0.5774 0.0000 ( 14682 PWs)   bands (ev):

   -66.6339 -41.0366 -40.7968 -40.7525 -18.1020 -17.9888 -11.7283 -11.0509
   -10.0596  -9.1921  -7.8528  -7.6994  -6.3536

     occupation numbers 
     1.0000   1.0000   1.0000   1.0000   1.0000   1.0000   1.0000   1.0000
     1.0000   1.0000   1.0000   1.0000   1.0000

          k = 0.1667 0.2887 0.0000 ( 14767 PWs)   bands (ev):

   -66.6523 -40.8736 -40.8327 -40.7044 -19.0551 -18.3635 -11.0252  -9.8154
    -9.7263  -9.2260  -7.9213  -6.9755  -6.7692

     occupation numbers 
     1.0000   1.0000   1.0000   1.0000   1.0000   1.0000   1.0000   1.0000
     1.0000   1.0000   1.0000   1.0000   1.0000

          k = 0.1667 0.3528 0.0000 ( 14742 PWs)   bands (ev):

   -66.6455 -40.9242 -40.8195 -40.7321 -18.7368 -18.2328 -11.1440 -10.2106
    -9.7370  -9.3377  -8.1301  -7.1668  -6.7538

     occupation numbers 
     1.0000   1.0000   1.0000   1.0000   1.0000   1.0000   1.0000   1.0000
     1.0000   1.0000   1.0000   1.0000   1.0000

          k = 0.1667 0.4170 0.0000 ( 14735 PWs)   bands (ev):

   -66.6396 -40.9674 -40.8080 -40.7575 -18.4330 -18.1084 -11.3038 -10.6674
    -9.7240  -9.3191  -8.3077  -7.4303  -6.6347

     occupation numbers 
     1.0000   1.0000   1.0000   1.0000   1.0000   1.0000   1.0000   1.0000
     1.0000   1.0000   1.0000   1.0000   1.0000

          k = 0.1667 0.4811 0.0000 ( 14724 PWs)   bands (ev):

   -66.6352 -40.9988 -40.7993 -40.7767 -18.1892 -18.0091 -11.4321 -11.0062
    -9.8508  -9.2448  -8.3473  -7.6871  -6.4500

     occupation numbers 
     1.0000   1.0000   1.0000   1.0000   1.0000   1.0000   1.0000   1.0000
     1.0000   1.0000   1.0000   1.0000   1.0000

          k = 0.1667 0.5453 0.0000 ( 14726 PWs)   bands (ev):

   -66.6329 -41.0154 -40.7947 -40.7870 -18.0518 -17.9536 -11.4999 -11.1858
    -9.9758  -9.1756  -8.3341  -7.8535  -6.2916

     occupation numbers 
     1.0000   1.0000   1.0000   1.0000   1.0000   1.0000   1.0000   1.0000
     1.0000   1.0000   1.0000   1.0000   1.0000

          k = 0.2222 0.3849 0.0000 ( 14721 PWs)   bands (ev):

   -66.6399 -40.9553 -40.8084 -40.7672 -18.4483 -18.1111 -11.2202 -10.6480
    -9.6186  -9.3690  -8.5459  -7.3523  -6.6504

     occupation numbers 
     1.0000   1.0000   1.0000   1.0000   1.0000   1.0000   1.0000   1.0000
     1.0000   1.0000   1.0000   1.0000   1.0000

          k = 0.2222 0.4491 0.0000 ( 14727 PWs)   bands (ev):

   -66.6352 -40.9768 -40.7994 -40.7994 -18.1960 -18.0033 -11.2553 -11.0325
    -9.6394  -9.2788  -8.8549  -7.6106  -6.4755

     occupation numbers 
     1.0000   1.0000   1.0000   1.0000   1.0000   1.0000   1.0000   1.0000
     1.0000   1.0000   1.0000   1.0000   1.0000

          k = 0.2222 0.5132 0.0000 ( 14710 PWs)   bands (ev):

   -66.6322 -40.9887 -40.8225 -40.7934 -18.0216 -17.9280 -11.2878 -11.2410
    -9.8337  -9.1498  -8.9463  -7.8521  -6.2643

     occupation numbers 
     1.0000   1.0000   1.0000   1.0000   1.0000   1.0000   1.0000   1.0000
     1.0000   1.0000   1.0000   1.0000   1.0000

          k = 0.2222 0.5774 0.0000 ( 14754 PWs)   bands (ev):

   -66.6311 -40.9924 -40.8310 -40.7914 -17.9591 -17.9008 -11.3768 -11.2222
    -9.9449  -9.0829  -8.9552  -7.9587  -6.1593

     occupation numbers 
     1.0000   1.0000   1.0000   1.0000   1.0000   1.0000   1.0000   1.0000
     1.0000   1.0000   1.0000   1.0000   1.0000

          k = 0.2778 0.4811 0.0000 ( 14692 PWs)   bands (ev):

   -66.6320 -40.9744 -40.8401 -40.7930 -18.0117 -17.9186 -11.3255 -11.1157
    -9.6708  -9.3071  -9.1387  -7.8501  -6.2559

     occupation numbers 
     1.0000   1.0000   1.0000   1.0000   1.0000   1.0000   1.0000   1.0000
     1.0000   1.0000   1.0000   1.0000   1.0000

          k = 0.2778 0.5453 0.0000 ( 14710 PWs)   bands (ev):

   -66.6302 -40.9661 -40.8686 -40.7896 -17.9104 -17.8708 -11.4859 -10.9376
    -9.9413  -9.4109  -8.9978  -8.0449  -6.0630

     occupation numbers 
     1.0000   1.0000   1.0000   1.0000   1.0000   1.0000   1.0000   1.0000
     1.0000   1.0000   1.0000   1.0000   1.0000

          k = 0.3333 0.5774 0.0000 ( 14718 PWs)   bands (ev):

   -66.6295 -40.9464 -40.8965 -40.7882 -17.8715 -17.8501 -11.5567 -10.6898
   -10.1640  -9.5316  -8.9120  -8.1444  -5.9633

     occupation numbers 
     1.0000   1.0000   1.0000   1.0000   1.0000   1.0000   1.0000   1.0000
     1.0000   1.0000   1.0000   1.0000   1.0000

     highest occupied level (ev):    -5.9633

!    total energy              =    -184.83183784 Ry
     estimated scf accuracy    <          5.2E-16 Ry

     The total energy is the sum of the following terms:
     one-electron contribution =   -2107.25480435 Ry
     hartree contribution      =    1049.20770408 Ry
     xc contribution           =     -33.16528300 Ry
     ewald contribution        =     906.38054543 Ry

     convergence has been achieved in  61 iterations

     Writing all to output data dir ./tmp/MoS2.save/ :
     XML data file, charge density, pseudopotentials, collected wavefunctions

     init_run     :      0.86s CPU      1.03s WALL (       1 calls)
     electrons    :      3.96s CPU      7.93s WALL (       1 calls)

     Called by init_run:
     wfcinit      :      0.01s CPU      0.07s WALL (       1 calls)
     wfcinit:atom :      0.00s CPU      0.00s WALL (       1 calls)
     wfcinit:wfcr :      0.01s CPU      0.06s WALL (       1 calls)
     potinit      :      0.02s CPU      0.04s WALL (       1 calls)
     hinit0       :      0.63s CPU      0.69s WALL (       1 calls)

     Called by electrons:
     c_bands      :      2.48s CPU      6.30s WALL (      61 calls)
     sum_band     :      0.32s CPU      0.33s WALL (      61 calls)
     v_of_rho     :      0.71s CPU      0.73s WALL (      62 calls)
     v_h          :      0.02s CPU      0.03s WALL (      62 calls)
     v_xc         :      0.69s CPU      0.70s WALL (      62 calls)
     mix_rho      :      0.17s CPU      0.17s WALL (      61 calls)

     Called by c_bands:
     init_us_2    :      0.02s CPU      0.03s WALL (     123 calls)
     cegterg      :      0.95s CPU      4.13s WALL (      61 calls)

     Called by sum_band:
     sum_band:wei :      0.01s CPU      0.01s WALL (      61 calls)
     sum_band:loo :      0.15s CPU      0.16s WALL (      61 calls)
     sum_band:buf :      0.00s CPU      0.00s WALL (      61 calls)
     sum_band:ini :      0.01s CPU      0.01s WALL (      61 calls)

     Called by *egterg:
     cdiaghg      :      0.06s CPU      3.19s WALL (     213 calls)
     cegterg:over :      0.03s CPU      0.03s WALL (     152 calls)
     cegterg:upda :      0.01s CPU      0.01s WALL (     152 calls)
     cegterg:last :      0.01s CPU      0.01s WALL (     111 calls)
     h_psi        :      0.82s CPU      0.92s WALL (     214 calls)
     g_psi        :      0.00s CPU      0.00s WALL (     152 calls)

     Called by h_psi:
     h_psi:calbec :      0.05s CPU      0.10s WALL (     214 calls)
     vloc_psi     :      0.73s CPU      0.79s WALL (     214 calls)
     add_vuspsi   :      0.03s CPU      0.03s WALL (     214 calls)

     General routines
     calbec       :      0.05s CPU      0.10s WALL (     214 calls)
     fft          :      0.79s CPU      0.85s WALL (     620 calls)
     ffts         :      0.02s CPU      0.02s WALL (      61 calls)
     fftw         :      0.79s CPU      0.85s WALL (    4851 calls)

     Parallel routines

     PWSCF        :      9.55s CPU     20.14s WALL


   This run was terminated on:  12:41: 2   9Feb2026            

=------------------------------------------------------------------------------=
   JOB DONE.
=------------------------------------------------------------------------------=
