
     Program PWSCF v.7.5 starts on 23Feb2026 at 11:59:52 
        Git branch: HEAD
        Last git commit: 770a0b2d12928a67048e2f3da8d10d057e52179e
        Last git commit date: Tue Aug 19 09:57:12 2025 +0000
        Last git commit subject: Merge branch 'QE-7.5-RC' into 'master'

     This program is part of the open-source Quantum ESPRESSO suite
     for quantum simulation of materials; please cite
         "P. Giannozzi et al., J. Phys.:Condens. Matter 21 395502 (2009);
         "P. Giannozzi et al., J. Phys.:Condens. Matter 29 465901 (2017);
         "P. Giannozzi et al., J. Chem. Phys. 152 154105 (2020);
          URL http://www.quantum-espresso.org", 
     in publications or presentations arising from this work. More details at
     http://www.quantum-espresso.org/quote

     Parallel version (MPI), running on     1 processors

     MPI processes distributed on     1 nodes
     122589 MiB available memory on the printing compute node when the environment starts

     Waiting for input...
     Reading input from standard input

     Current dimensions of program PWSCF are:
     Max number of different atomic species (ntypx) = 10
     Max number of k-points (npk) =  40000
     Max angular momentum in pseudopotentials (lmaxx) =  4

     gamma-point specific algorithms are used

     Subspace diagonalization in iterative solution of the eigenvalue problem:
     a serial algorithm will be used


     G-vector sticks info
     --------------------
     sticks:   dense  smooth     PW     G-vecs:    dense   smooth      PW
     Sum         769     769    199               117995   117995   14855

     Using Slab Decomposition



     bravais-lattice index     =            4
     lattice parameter (alat)  =       5.9413  a.u.
     unit-cell volume          =    1222.6725 (a.u.)^3
     number of atoms/cell      =            3
     number of atomic types    =            2
     number of electrons       =        26.00
     number of Kohn-Sham states=           13
     kinetic-energy cutoff     =      80.0000  Ry
     charge density cutoff     =     320.0000  Ry
     scf convergence threshold =      1.0E-15
     mixing beta               =       0.2000
     number of iterations used =            8  plain     mixing
     Exchange-correlation= PBESOL
                           (   1   4  10   8   0   0   0)

     celldm(1)=   5.941254  celldm(2)=   0.000000  celldm(3)=   6.732015
     celldm(4)=   0.000000  celldm(5)=   0.000000  celldm(6)=   0.000000

     crystal axes: (cart. coord. in units of alat)
               a(1) = (   1.000000   0.000000   0.000000 )  
               a(2) = (  -0.500000   0.866025   0.000000 )  
               a(3) = (   0.000000   0.000000   6.732015 )  

     reciprocal axes: (cart. coord. in units 2 pi/alat)
               b(1) = (  1.000000  0.577350 -0.000000 )  
               b(2) = (  0.000000  1.154701  0.000000 )  
               b(3) = (  0.000000 -0.000000  0.148544 )  


     PseudoPot. # 1 for Mo read from file:
     ../../pseudo/Mo.pbesol.dojo.upf
     MD5 check sum: c40353276b9086539cda6b9e5a66907b
     Pseudo is Norm-conserving + core correction, Zval = 14.0
     Generated using ONCVPSP code by D. R. Hamann
     Using radial grid of 1640 points,  6 beta functions with: 
                l(1) =   0
                l(2) =   0
                l(3) =   1
                l(4) =   1
                l(5) =   2
                l(6) =   2

     PseudoPot. # 2 for S  read from file:
     ../../pseudo/S.pbesol.dojo.upf
     MD5 check sum: 501737efeeef1fb1c631cda521d4e019
     Pseudo is Norm-conserving + core correction, Zval =  6.0
     Generated using ONCVPSP code by D. R. Hamann
     Using radial grid of 1146 points,  6 beta functions with: 
                l(1) =   0
                l(2) =   0
                l(3) =   1
                l(4) =   1
                l(5) =   2
                l(6) =   2

     atomic species   valence    mass     pseudopotential
     Mo               14.00    95.95000     Mo( 1.00)
     S                 6.00    32.06500     S ( 1.00)

     12 Sym. Ops. (no inversion) found


                                    s                        frac. trans.

      isym =  1     identity                                     

 cryst.   s( 1) = (     1          0          0      )
                  (     0          1          0      )
                  (     0          0          1      )

 cart.    s( 1) = (  1.0000000  0.0000000  0.0000000 )
                  (  0.0000000  1.0000000  0.0000000 )
                  (  0.0000000  0.0000000  1.0000000 )


      isym =  2     180 deg rotation - cart. axis [0,1,0]        

 cryst.   s( 2) = (    -1          0          0      )
                  (     1          1          0      )
                  (     0          0         -1      )

 cart.    s( 2) = ( -1.0000000  0.0000000  0.0000000 )
                  (  0.0000000  1.0000000  0.0000000 )
                  (  0.0000000  0.0000000 -1.0000000 )


      isym =  3     120 deg rotation - cryst. axis [0,0,1]       

 cryst.   s( 3) = (     0          1          0      )
                  (    -1         -1          0      )
                  (     0          0          1      )

 cart.    s( 3) = ( -0.5000000 -0.8660254  0.0000000 )
                  (  0.8660254 -0.5000000  0.0000000 )
                  (  0.0000000  0.0000000  1.0000000 )


      isym =  4     120 deg rotation - cryst. axis [0,0,-1]      

 cryst.   s( 4) = (    -1         -1          0      )
                  (     1          0          0      )
                  (     0          0          1      )

 cart.    s( 4) = ( -0.5000000  0.8660254  0.0000000 )
                  ( -0.8660254 -0.5000000  0.0000000 )
                  (  0.0000000  0.0000000  1.0000000 )


      isym =  5     180 deg rotation - cryst. axis [1,-1,0]      

 cryst.   s( 5) = (     0         -1          0      )
                  (    -1          0          0      )
                  (     0          0         -1      )

 cart.    s( 5) = (  0.5000000 -0.8660254  0.0000000 )
                  ( -0.8660254 -0.5000000  0.0000000 )
                  (  0.0000000  0.0000000 -1.0000000 )


      isym =  6     180 deg rotation - cryst. axis [2,1,0]       

 cryst.   s( 6) = (     1          1          0      )
                  (     0         -1          0      )
                  (     0          0         -1      )

 cart.    s( 6) = (  0.5000000  0.8660254  0.0000000 )
                  (  0.8660254 -0.5000000  0.0000000 )
                  (  0.0000000  0.0000000 -1.0000000 )


      isym =  7     inv. 180 deg rotation - cart. axis [0,0,1]   

 cryst.   s( 7) = (     1          0          0      )
                  (     0          1          0      )
                  (     0          0         -1      )

 cart.    s( 7) = (  1.0000000  0.0000000  0.0000000 )
                  (  0.0000000  1.0000000  0.0000000 )
                  (  0.0000000  0.0000000 -1.0000000 )


      isym =  8     inv. 180 deg rotation - cart. axis [1,0,0]   

 cryst.   s( 8) = (    -1          0          0      )
                  (     1          1          0      )
                  (     0          0          1      )

 cart.    s( 8) = ( -1.0000000  0.0000000  0.0000000 )
                  (  0.0000000  1.0000000  0.0000000 )
                  (  0.0000000  0.0000000  1.0000000 )


      isym =  9     inv.  60 deg rotation - cryst. axis [0,0,1]  

 cryst.   s( 9) = (    -1         -1          0      )
                  (     1          0          0      )
                  (     0          0         -1      )

 cart.    s( 9) = ( -0.5000000  0.8660254  0.0000000 )
                  ( -0.8660254 -0.5000000  0.0000000 )
                  (  0.0000000  0.0000000 -1.0000000 )


      isym = 10     inv.  60 deg rotation - cryst. axis [0,0,-1] 

 cryst.   s(10) = (     0          1          0      )
                  (    -1         -1          0      )
                  (     0          0         -1      )

 cart.    s(10) = ( -0.5000000 -0.8660254  0.0000000 )
                  (  0.8660254 -0.5000000  0.0000000 )
                  (  0.0000000  0.0000000 -1.0000000 )


      isym = 11     inv. 180 deg rotation - cryst. axis [0,1,0]  

 cryst.   s(11) = (     1          1          0      )
                  (     0         -1          0      )
                  (     0          0          1      )

 cart.    s(11) = (  0.5000000  0.8660254  0.0000000 )
                  (  0.8660254 -0.5000000  0.0000000 )
                  (  0.0000000  0.0000000  1.0000000 )


      isym = 12     inv. 180 deg rotation - cryst. axis [1,1,0]  

 cryst.   s(12) = (     0         -1          0      )
                  (    -1          0          0      )
                  (     0          0          1      )

 cart.    s(12) = (  0.5000000 -0.8660254  0.0000000 )
                  ( -0.8660254 -0.5000000  0.0000000 )
                  (  0.0000000  0.0000000  1.0000000 )


     point group D_3h (-62m)
     there are  6 classes
     the character table:

       E     2C3   3C2   s_h   2S3   3s_v 
A'_1   1.00  1.00  1.00  1.00  1.00  1.00
A'_2   1.00  1.00 -1.00  1.00  1.00 -1.00
E'     2.00 -1.00  0.00  2.00 -1.00  0.00
A''1   1.00  1.00  1.00 -1.00 -1.00 -1.00
A''2   1.00  1.00 -1.00 -1.00 -1.00  1.00
E''    2.00 -1.00  0.00 -2.00  1.00  0.00

     the symmetry operations in each class and the name of the first element:

     E        1
          identity                                               
     2C3      3    4
          120 deg rotation - cryst. axis [0,0,1]                 
     3C2      2    6    5
          180 deg rotation - cart. axis [0,1,0]                  
     s_h      7
          inv. 180 deg rotation - cart. axis [0,0,1]             
     2S3      9   10
          inv.  60 deg rotation - cryst. axis [0,0,1]            
     3s_v     8   11   12
          inv. 180 deg rotation - cart. axis [1,0,0]             

   Cartesian axes

     site n.     atom                  positions (alat units)
         1        Mo     tau(   1) = (   0.0000000   0.5773502   3.3660074  )
         2        S      tau(   2) = (   0.5000000   0.2886751   3.8617060  )
         3        S      tau(   3) = (   0.5000000   0.2886751   2.8703088  )

     Fixed atoms
     site n.  direction
         1    0   0   0
         2    0   0   1
         3    0   0   1

   Crystallographic axes

     site n.     atom                  positions (cryst. coord.)
         1        Mo     tau(   1) = (  0.3333333  0.6666666  0.5000000  )
         2        S      tau(   2) = (  0.6666667  0.3333333  0.5736330  )
         3        S      tau(   3) = (  0.6666667  0.3333333  0.4263670  )

     number of k points=     1
                       cart. coord. in units 2pi/alat
        k(    1) = (   0.0000000   0.0000000   0.0000000), wk =   2.0000000

                       cryst. coord.
        k(    1) = (   0.0000000   0.0000000   0.0000000), wk =   2.0000000

     Dense  grid:    58998 G-vectors     FFT dimensions: (  36,  36, 240)

     Dynamical RAM for                 wfc:       1.47 MB

     Dynamical RAM for     wfc (w. buffer):       1.47 MB

     Dynamical RAM for           str. fact:       1.80 MB

     Dynamical RAM for           local pot:       0.00 MB

     Dynamical RAM for          nlocal pot:       6.09 MB

     Dynamical RAM for                qrad:       2.87 MB

     Dynamical RAM for          rho,v,vnew:       9.82 MB

     Dynamical RAM for               rhoin:       3.27 MB

     Dynamical RAM for            rho*nmix:      14.40 MB

     Dynamical RAM for           G-vectors:       3.83 MB

     Dynamical RAM for          h,s,v(r/c):       0.02 MB

     Dynamical RAM for          <psi|beta>:       0.01 MB

     Dynamical RAM for                 psi:       2.93 MB

     Dynamical RAM for                hpsi:       2.93 MB

     Dynamical RAM for      wfcinit/wfcrot:       2.93 MB

     Estimated static dynamical RAM per process >      43.71 MB

     Estimated max dynamical RAM per process >      63.99 MB
 ----2D----2D----2D----2D----2D----2D----2D----2D----2D----2D----2D----2D
  The code is running with the 2D cutoff
  Please refer to:
  Sohier, T., Calandra, M., & Mauri, F. (2017), 
  Density functional perturbation theory for gated two-dimensional heterostructures:
  Theoretical developments and application to flexural phonons in graphene.
  Physical Review B, 96(7), 75448. https://doi.org/10.1103/PhysRevB.96.075448
 ----2D----2D----2D----2D----2D----2D----2D----2D----2D----2D----2D----2D
     Cannot read rho : file not found

     Initial potential from superposition of free atoms

     starting charge      25.9986, renormalised to      26.0000

     negative rho (up, down):  3.045E-05 0.000E+00
     Starting wfcs are   18 randomized atomic wfcs

     total cpu time spent up to now is        2.6 secs

     per-process dynamical memory:    61.7 Mb

     Self-consistent Calculation

     iteration #  1     ecut=    80.00 Ry     beta= 0.20
     Davidson diagonalization with overlap

---- Real-time Memory Report at c_bands before calling an iterative solver
            85 MiB given to the printing process from OS
            60 MiB allocation reported by mallinfo(arena+hblkhd)
        122501 MiB available memory on the node where the printing process lives
------------------
     ethr =  1.00E-05,  avg # of iterations = 10.0

     negative rho (up, down):  2.158E-05 0.000E+00

     total cpu time spent up to now is        3.3 secs

     total energy              =    -184.24425630 Ry
     estimated scf accuracy    <       0.36072835 Ry

     iteration #  2     ecut=    80.00 Ry     beta= 0.20
     Davidson diagonalization with overlap

---- Real-time Memory Report at c_bands before calling an iterative solver
           105 MiB given to the printing process from OS
            69 MiB allocation reported by mallinfo(arena+hblkhd)
        122547 MiB available memory on the node where the printing process lives
------------------
     ethr =  1.39E-03,  avg # of iterations =  2.0

     negative rho (up, down):  1.151E-05 0.000E+00

     total cpu time spent up to now is        3.6 secs

     total energy              =    -184.23123646 Ry
     estimated scf accuracy    <       0.12185158 Ry

     iteration #  3     ecut=    80.00 Ry     beta= 0.20
     Davidson diagonalization with overlap

---- Real-time Memory Report at c_bands before calling an iterative solver
           107 MiB given to the printing process from OS
            71 MiB allocation reported by mallinfo(arena+hblkhd)
        122508 MiB available memory on the node where the printing process lives
------------------
     ethr =  4.69E-04,  avg # of iterations =  2.0

     negative rho (up, down):  1.193E-06 0.000E+00

     total cpu time spent up to now is        4.1 secs

     total energy              =    -184.22395094 Ry
     estimated scf accuracy    <       0.04485334 Ry

     iteration #  4     ecut=    80.00 Ry     beta= 0.20
     Davidson diagonalization with overlap

---- Real-time Memory Report at c_bands before calling an iterative solver
           109 MiB given to the printing process from OS
            73 MiB allocation reported by mallinfo(arena+hblkhd)
        123990 MiB available memory on the node where the printing process lives
------------------
     ethr =  1.73E-04,  avg # of iterations =  5.0

     negative rho (up, down):  1.303E-06 0.000E+00

     total cpu time spent up to now is        4.6 secs

     total energy              =    -184.23345672 Ry
     estimated scf accuracy    <       0.03966360 Ry

     iteration #  5     ecut=    80.00 Ry     beta= 0.20
     Davidson diagonalization with overlap

---- Real-time Memory Report at c_bands before calling an iterative solver
           111 MiB given to the printing process from OS
            75 MiB allocation reported by mallinfo(arena+hblkhd)
        124373 MiB available memory on the node where the printing process lives
------------------
     ethr =  1.53E-04,  avg # of iterations =  1.0

     negative rho (up, down):  1.404E-06 0.000E+00

     total cpu time spent up to now is        4.9 secs

     total energy              =    -184.21991414 Ry
     estimated scf accuracy    <       0.02460672 Ry

     iteration #  6     ecut=    80.00 Ry     beta= 0.20
     Davidson diagonalization with overlap

---- Real-time Memory Report at c_bands before calling an iterative solver
           113 MiB given to the printing process from OS
            76 MiB allocation reported by mallinfo(arena+hblkhd)
        124302 MiB available memory on the node where the printing process lives
------------------
     ethr =  9.46E-05,  avg # of iterations =  7.0

     negative rho (up, down):  2.884E-07 0.000E+00

     total cpu time spent up to now is        5.2 secs

     total energy              =    -184.23766522 Ry
     estimated scf accuracy    <       0.13982749 Ry

     iteration #  7     ecut=    80.00 Ry     beta= 0.20
     Davidson diagonalization with overlap

---- Real-time Memory Report at c_bands before calling an iterative solver
           115 MiB given to the printing process from OS
            78 MiB allocation reported by mallinfo(arena+hblkhd)
        124055 MiB available memory on the node where the printing process lives
------------------
     ethr =  9.46E-05,  avg # of iterations =  2.0

     total cpu time spent up to now is        5.5 secs

     total energy              =    -184.20696321 Ry
     estimated scf accuracy    <       0.09754780 Ry

     iteration #  8     ecut=    80.00 Ry     beta= 0.20
     Davidson diagonalization with overlap

---- Real-time Memory Report at c_bands before calling an iterative solver
           117 MiB given to the printing process from OS
            80 MiB allocation reported by mallinfo(arena+hblkhd)
        124369 MiB available memory on the node where the printing process lives
------------------
     ethr =  9.46E-05,  avg # of iterations =  7.0

     total cpu time spent up to now is        5.8 secs

     total energy              =    -184.22844084 Ry
     estimated scf accuracy    <       0.07405460 Ry

     iteration #  9     ecut=    80.00 Ry     beta= 0.20
     Davidson diagonalization with overlap

---- Real-time Memory Report at c_bands before calling an iterative solver
           118 MiB given to the printing process from OS
            82 MiB allocation reported by mallinfo(arena+hblkhd)
        124411 MiB available memory on the node where the printing process lives
------------------
     ethr =  9.46E-05,  avg # of iterations =  2.0

     total cpu time spent up to now is        6.1 secs

     total energy              =    -184.22910402 Ry
     estimated scf accuracy    <       0.01900158 Ry

     iteration # 10     ecut=    80.00 Ry     beta= 0.20
     Davidson diagonalization with overlap

---- Real-time Memory Report at c_bands before calling an iterative solver
           120 MiB given to the printing process from OS
            84 MiB allocation reported by mallinfo(arena+hblkhd)
        124326 MiB available memory on the node where the printing process lives
------------------
     ethr =  7.31E-05,  avg # of iterations =  4.0

     total cpu time spent up to now is        6.3 secs

     total energy              =    -184.23189447 Ry
     estimated scf accuracy    <       0.00043451 Ry

     iteration # 11     ecut=    80.00 Ry     beta= 0.20
     Davidson diagonalization with overlap

---- Real-time Memory Report at c_bands before calling an iterative solver
           120 MiB given to the printing process from OS
            84 MiB allocation reported by mallinfo(arena+hblkhd)
        124257 MiB available memory on the node where the printing process lives
------------------
     ethr =  1.67E-06,  avg # of iterations =  6.0

     total cpu time spent up to now is        6.6 secs

     total energy              =    -184.23309622 Ry
     estimated scf accuracy    <       0.00561402 Ry

     iteration # 12     ecut=    80.00 Ry     beta= 0.20
     Davidson diagonalization with overlap

---- Real-time Memory Report at c_bands before calling an iterative solver
           121 MiB given to the printing process from OS
            84 MiB allocation reported by mallinfo(arena+hblkhd)
        124410 MiB available memory on the node where the printing process lives
------------------
     ethr =  1.67E-06,  avg # of iterations =  1.0

     total cpu time spent up to now is        6.9 secs

     total energy              =    -184.23256297 Ry
     estimated scf accuracy    <       0.00521191 Ry

     iteration # 13     ecut=    80.00 Ry     beta= 0.20
     Davidson diagonalization with overlap

---- Real-time Memory Report at c_bands before calling an iterative solver
           121 MiB given to the printing process from OS
            84 MiB allocation reported by mallinfo(arena+hblkhd)
        124431 MiB available memory on the node where the printing process lives
------------------
     ethr =  1.67E-06,  avg # of iterations =  4.0

     total cpu time spent up to now is        7.3 secs

     total energy              =    -184.23268515 Ry
     estimated scf accuracy    <       0.00174381 Ry

     iteration # 14     ecut=    80.00 Ry     beta= 0.20
     Davidson diagonalization with overlap

---- Real-time Memory Report at c_bands before calling an iterative solver
           121 MiB given to the printing process from OS
            84 MiB allocation reported by mallinfo(arena+hblkhd)
        124410 MiB available memory on the node where the printing process lives
------------------
     ethr =  1.67E-06,  avg # of iterations =  1.0

     negative rho (up, down):  1.234E-08 0.000E+00

     total cpu time spent up to now is        7.8 secs

     total energy              =    -184.23241628 Ry
     estimated scf accuracy    <       0.00152953 Ry

     iteration # 15     ecut=    80.00 Ry     beta= 0.20
     Davidson diagonalization with overlap

---- Real-time Memory Report at c_bands before calling an iterative solver
           121 MiB given to the printing process from OS
            84 MiB allocation reported by mallinfo(arena+hblkhd)
        124361 MiB available memory on the node where the printing process lives
------------------
     ethr =  1.67E-06,  avg # of iterations =  5.0

     total cpu time spent up to now is        8.2 secs

     total energy              =    -184.23259889 Ry
     estimated scf accuracy    <       0.00000385 Ry

     iteration # 16     ecut=    80.00 Ry     beta= 0.20
     Davidson diagonalization with overlap

---- Real-time Memory Report at c_bands before calling an iterative solver
           121 MiB given to the printing process from OS
            84 MiB allocation reported by mallinfo(arena+hblkhd)
        124367 MiB available memory on the node where the printing process lives
------------------
     ethr =  1.48E-08,  avg # of iterations =  6.0

     negative rho (up, down):  3.947E-08 0.000E+00

     total cpu time spent up to now is        8.6 secs

     total energy              =    -184.23260414 Ry
     estimated scf accuracy    <       0.00004825 Ry

     iteration # 17     ecut=    80.00 Ry     beta= 0.20
     Davidson diagonalization with overlap

---- Real-time Memory Report at c_bands before calling an iterative solver
           121 MiB given to the printing process from OS
            84 MiB allocation reported by mallinfo(arena+hblkhd)
        124345 MiB available memory on the node where the printing process lives
------------------
     ethr =  1.48E-08,  avg # of iterations =  5.0

     negative rho (up, down):  1.518E-08 0.000E+00

     total cpu time spent up to now is        8.9 secs

     total energy              =    -184.23260338 Ry
     estimated scf accuracy    <       0.00002380 Ry

     iteration # 18     ecut=    80.00 Ry     beta= 0.20
     Davidson diagonalization with overlap

---- Real-time Memory Report at c_bands before calling an iterative solver
           121 MiB given to the printing process from OS
            84 MiB allocation reported by mallinfo(arena+hblkhd)
        124321 MiB available memory on the node where the printing process lives
------------------
     ethr =  1.48E-08,  avg # of iterations =  4.0

     total cpu time spent up to now is        9.3 secs

     total energy              =    -184.23259855 Ry
     estimated scf accuracy    <       0.00001121 Ry

     iteration # 19     ecut=    80.00 Ry     beta= 0.20
     Davidson diagonalization with overlap

---- Real-time Memory Report at c_bands before calling an iterative solver
           121 MiB given to the printing process from OS
            84 MiB allocation reported by mallinfo(arena+hblkhd)
        124328 MiB available memory on the node where the printing process lives
------------------
     ethr =  1.48E-08,  avg # of iterations =  6.0

     negative rho (up, down):  1.886E-07 0.000E+00

     total cpu time spent up to now is        9.8 secs

     total energy              =    -184.23260605 Ry
     estimated scf accuracy    <       0.00003730 Ry

     iteration # 20     ecut=    80.00 Ry     beta= 0.20
     Davidson diagonalization with overlap

---- Real-time Memory Report at c_bands before calling an iterative solver
           121 MiB given to the printing process from OS
            84 MiB allocation reported by mallinfo(arena+hblkhd)
        124219 MiB available memory on the node where the printing process lives
------------------
     ethr =  1.48E-08,  avg # of iterations =  1.0

     negative rho (up, down):  4.752E-07 0.000E+00

     total cpu time spent up to now is       10.1 secs

     total energy              =    -184.23260110 Ry
     estimated scf accuracy    <       0.00003411 Ry

     iteration # 21     ecut=    80.00 Ry     beta= 0.20
     Davidson diagonalization with overlap

---- Real-time Memory Report at c_bands before calling an iterative solver
           121 MiB given to the printing process from OS
            84 MiB allocation reported by mallinfo(arena+hblkhd)
        124220 MiB available memory on the node where the printing process lives
------------------
     ethr =  1.48E-08,  avg # of iterations =  5.0

     negative rho (up, down):  4.505E-08 0.000E+00

     total cpu time spent up to now is       10.4 secs

     total energy              =    -184.23260317 Ry
     estimated scf accuracy    <       0.00000606 Ry

     iteration # 22     ecut=    80.00 Ry     beta= 0.20
     Davidson diagonalization with overlap

---- Real-time Memory Report at c_bands before calling an iterative solver
           121 MiB given to the printing process from OS
            84 MiB allocation reported by mallinfo(arena+hblkhd)
        124155 MiB available memory on the node where the printing process lives
------------------
     ethr =  1.48E-08,  avg # of iterations =  1.0

     total cpu time spent up to now is       10.5 secs

     total energy              =    -184.23260269 Ry
     estimated scf accuracy    <       0.00000531 Ry

     iteration # 23     ecut=    80.00 Ry     beta= 0.20
     Davidson diagonalization with overlap

---- Real-time Memory Report at c_bands before calling an iterative solver
           121 MiB given to the printing process from OS
            84 MiB allocation reported by mallinfo(arena+hblkhd)
        124122 MiB available memory on the node where the printing process lives
------------------
     ethr =  1.48E-08,  avg # of iterations =  2.0

     negative rho (up, down):  2.139E-08 0.000E+00

     total cpu time spent up to now is       10.8 secs

     total energy              =    -184.23260235 Ry
     estimated scf accuracy    <       0.00000269 Ry

     iteration # 24     ecut=    80.00 Ry     beta= 0.20
     Davidson diagonalization with overlap

---- Real-time Memory Report at c_bands before calling an iterative solver
           121 MiB given to the printing process from OS
            84 MiB allocation reported by mallinfo(arena+hblkhd)
        124282 MiB available memory on the node where the printing process lives
------------------
     ethr =  1.03E-08,  avg # of iterations =  4.0

     total cpu time spent up to now is       11.1 secs

     total energy              =    -184.23260318 Ry
     estimated scf accuracy    <       0.00000212 Ry

     iteration # 25     ecut=    80.00 Ry     beta= 0.20
     Davidson diagonalization with overlap

---- Real-time Memory Report at c_bands before calling an iterative solver
           121 MiB given to the printing process from OS
            84 MiB allocation reported by mallinfo(arena+hblkhd)
        124247 MiB available memory on the node where the printing process lives
------------------
     ethr =  8.16E-09,  avg # of iterations =  1.0

     negative rho (up, down):  3.989E-08 0.000E+00

     total cpu time spent up to now is       11.4 secs

     total energy              =    -184.23260295 Ry
     estimated scf accuracy    <       0.00000243 Ry

     iteration # 26     ecut=    80.00 Ry     beta= 0.20
     Davidson diagonalization with overlap

---- Real-time Memory Report at c_bands before calling an iterative solver
           121 MiB given to the printing process from OS
            84 MiB allocation reported by mallinfo(arena+hblkhd)
        124231 MiB available memory on the node where the printing process lives
------------------
     ethr =  8.16E-09,  avg # of iterations =  1.0

     negative rho (up, down):  8.157E-08 0.000E+00

     total cpu time spent up to now is       11.8 secs

     total energy              =    -184.23260283 Ry
     estimated scf accuracy    <       0.00000162 Ry

     iteration # 27     ecut=    80.00 Ry     beta= 0.20
     Davidson diagonalization with overlap

---- Real-time Memory Report at c_bands before calling an iterative solver
           121 MiB given to the printing process from OS
            84 MiB allocation reported by mallinfo(arena+hblkhd)
        124241 MiB available memory on the node where the printing process lives
------------------
     ethr =  6.24E-09,  avg # of iterations =  2.0

     negative rho (up, down):  1.926E-08 0.000E+00

     total cpu time spent up to now is       12.2 secs

     total energy              =    -184.23260283 Ry
     estimated scf accuracy    <       0.00000068 Ry

     iteration # 28     ecut=    80.00 Ry     beta= 0.20
     Davidson diagonalization with overlap

---- Real-time Memory Report at c_bands before calling an iterative solver
           121 MiB given to the printing process from OS
            84 MiB allocation reported by mallinfo(arena+hblkhd)
        124218 MiB available memory on the node where the printing process lives
------------------
     ethr =  2.63E-09,  avg # of iterations =  5.0

     negative rho (up, down):  4.296E-08 0.000E+00

     total cpu time spent up to now is       12.7 secs

     total energy              =    -184.23260298 Ry
     estimated scf accuracy    <       0.00000042 Ry

     iteration # 29     ecut=    80.00 Ry     beta= 0.20
     Davidson diagonalization with overlap

---- Real-time Memory Report at c_bands before calling an iterative solver
           121 MiB given to the printing process from OS
            84 MiB allocation reported by mallinfo(arena+hblkhd)
        124288 MiB available memory on the node where the printing process lives
------------------
     ethr =  1.61E-09,  avg # of iterations =  1.0

     total cpu time spent up to now is       13.1 secs

     total energy              =    -184.23260289 Ry
     estimated scf accuracy    <       0.00000049 Ry

     iteration # 30     ecut=    80.00 Ry     beta= 0.20
     Davidson diagonalization with overlap

---- Real-time Memory Report at c_bands before calling an iterative solver
           121 MiB given to the printing process from OS
            84 MiB allocation reported by mallinfo(arena+hblkhd)
        124234 MiB available memory on the node where the printing process lives
------------------
     ethr =  1.61E-09,  avg # of iterations =  3.0

     total cpu time spent up to now is       13.5 secs

     total energy              =    -184.23260293 Ry
     estimated scf accuracy    <       0.00000006 Ry

     iteration # 31     ecut=    80.00 Ry     beta= 0.20
     Davidson diagonalization with overlap

---- Real-time Memory Report at c_bands before calling an iterative solver
           121 MiB given to the printing process from OS
            84 MiB allocation reported by mallinfo(arena+hblkhd)
        124213 MiB available memory on the node where the printing process lives
------------------
     ethr =  2.20E-10,  avg # of iterations =  5.0

     total cpu time spent up to now is       13.8 secs

     total energy              =    -184.23260294 Ry
     estimated scf accuracy    <       0.00000004 Ry

     iteration # 32     ecut=    80.00 Ry     beta= 0.20
     Davidson diagonalization with overlap

---- Real-time Memory Report at c_bands before calling an iterative solver
           121 MiB given to the printing process from OS
            84 MiB allocation reported by mallinfo(arena+hblkhd)
        124192 MiB available memory on the node where the printing process lives
------------------
     ethr =  1.53E-10,  avg # of iterations =  3.0

     total cpu time spent up to now is       14.3 secs

     total energy              =    -184.23260294 Ry
     estimated scf accuracy    <       0.00000002 Ry

     iteration # 33     ecut=    80.00 Ry     beta= 0.20
     Davidson diagonalization with overlap

---- Real-time Memory Report at c_bands before calling an iterative solver
           121 MiB given to the printing process from OS
            84 MiB allocation reported by mallinfo(arena+hblkhd)
        124203 MiB available memory on the node where the printing process lives
------------------
     ethr =  7.48E-11,  avg # of iterations =  2.0

     total cpu time spent up to now is       14.7 secs

     total energy              =    -184.23260294 Ry
     estimated scf accuracy    <       0.00000001 Ry

     iteration # 34     ecut=    80.00 Ry     beta= 0.20
     Davidson diagonalization with overlap

---- Real-time Memory Report at c_bands before calling an iterative solver
           121 MiB given to the printing process from OS
            84 MiB allocation reported by mallinfo(arena+hblkhd)
        124114 MiB available memory on the node where the printing process lives
------------------
     ethr =  4.57E-11,  avg # of iterations =  5.0

     total cpu time spent up to now is       15.1 secs

     total energy              =    -184.23260294 Ry
     estimated scf accuracy    <          5.0E-09 Ry

     iteration # 35     ecut=    80.00 Ry     beta= 0.20
     Davidson diagonalization with overlap

---- Real-time Memory Report at c_bands before calling an iterative solver
           121 MiB given to the printing process from OS
            84 MiB allocation reported by mallinfo(arena+hblkhd)
        124035 MiB available memory on the node where the printing process lives
------------------
     ethr =  1.92E-11,  avg # of iterations =  1.0

     total cpu time spent up to now is       15.3 secs

     total energy              =    -184.23260294 Ry
     estimated scf accuracy    <          3.4E-09 Ry

     iteration # 36     ecut=    80.00 Ry     beta= 0.20
     Davidson diagonalization with overlap

---- Real-time Memory Report at c_bands before calling an iterative solver
           121 MiB given to the printing process from OS
            84 MiB allocation reported by mallinfo(arena+hblkhd)
        123992 MiB available memory on the node where the printing process lives
------------------
     ethr =  1.32E-11,  avg # of iterations =  4.0

     total cpu time spent up to now is       15.8 secs

     total energy              =    -184.23260294 Ry
     estimated scf accuracy    <          3.4E-09 Ry

     iteration # 37     ecut=    80.00 Ry     beta= 0.20
     Davidson diagonalization with overlap

---- Real-time Memory Report at c_bands before calling an iterative solver
           121 MiB given to the printing process from OS
            84 MiB allocation reported by mallinfo(arena+hblkhd)
        124032 MiB available memory on the node where the printing process lives
------------------
     ethr =  1.29E-11,  avg # of iterations =  2.0

     total cpu time spent up to now is       16.2 secs

     total energy              =    -184.23260294 Ry
     estimated scf accuracy    <          1.1E-09 Ry

     iteration # 38     ecut=    80.00 Ry     beta= 0.20
     Davidson diagonalization with overlap

---- Real-time Memory Report at c_bands before calling an iterative solver
           121 MiB given to the printing process from OS
            84 MiB allocation reported by mallinfo(arena+hblkhd)
        124037 MiB available memory on the node where the printing process lives
------------------
     ethr =  4.39E-12,  avg # of iterations =  4.0

     total cpu time spent up to now is       16.6 secs

     total energy              =    -184.23260294 Ry
     estimated scf accuracy    <          6.4E-10 Ry

     iteration # 39     ecut=    80.00 Ry     beta= 0.20
     Davidson diagonalization with overlap

---- Real-time Memory Report at c_bands before calling an iterative solver
           121 MiB given to the printing process from OS
            84 MiB allocation reported by mallinfo(arena+hblkhd)
        124121 MiB available memory on the node where the printing process lives
------------------
     ethr =  2.46E-12,  avg # of iterations =  1.0

     total cpu time spent up to now is       16.9 secs

     total energy              =    -184.23260294 Ry
     estimated scf accuracy    <          5.7E-10 Ry

     iteration # 40     ecut=    80.00 Ry     beta= 0.20
     Davidson diagonalization with overlap

---- Real-time Memory Report at c_bands before calling an iterative solver
           121 MiB given to the printing process from OS
            84 MiB allocation reported by mallinfo(arena+hblkhd)
        124087 MiB available memory on the node where the printing process lives
------------------
     ethr =  2.19E-12,  avg # of iterations =  1.0

     total cpu time spent up to now is       17.2 secs

     total energy              =    -184.23260294 Ry
     estimated scf accuracy    <          4.3E-10 Ry

     iteration # 41     ecut=    80.00 Ry     beta= 0.20
     Davidson diagonalization with overlap

---- Real-time Memory Report at c_bands before calling an iterative solver
           121 MiB given to the printing process from OS
            84 MiB allocation reported by mallinfo(arena+hblkhd)
        124128 MiB available memory on the node where the printing process lives
------------------
     ethr =  1.67E-12,  avg # of iterations =  4.0

     total cpu time spent up to now is       17.6 secs

     total energy              =    -184.23260294 Ry
     estimated scf accuracy    <          1.5E-10 Ry

     iteration # 42     ecut=    80.00 Ry     beta= 0.20
     Davidson diagonalization with overlap

---- Real-time Memory Report at c_bands before calling an iterative solver
           121 MiB given to the printing process from OS
            84 MiB allocation reported by mallinfo(arena+hblkhd)
        124080 MiB available memory on the node where the printing process lives
------------------
     ethr =  5.87E-13,  avg # of iterations =  5.0

     total cpu time spent up to now is       17.8 secs

     total energy              =    -184.23260294 Ry
     estimated scf accuracy    <          3.5E-11 Ry

     iteration # 43     ecut=    80.00 Ry     beta= 0.20
     Davidson diagonalization with overlap

---- Real-time Memory Report at c_bands before calling an iterative solver
           121 MiB given to the printing process from OS
            84 MiB allocation reported by mallinfo(arena+hblkhd)
        124093 MiB available memory on the node where the printing process lives
------------------
     ethr =  1.33E-13,  avg # of iterations =  5.0

     total cpu time spent up to now is       18.3 secs

     total energy              =    -184.23260294 Ry
     estimated scf accuracy    <          1.0E-10 Ry

     iteration # 44     ecut=    80.00 Ry     beta= 0.20
     Davidson diagonalization with overlap

---- Real-time Memory Report at c_bands before calling an iterative solver
           121 MiB given to the printing process from OS
            84 MiB allocation reported by mallinfo(arena+hblkhd)
        124119 MiB available memory on the node where the printing process lives
------------------
     ethr =  1.33E-13,  avg # of iterations =  1.0

     total cpu time spent up to now is       18.6 secs

     total energy              =    -184.23260294 Ry
     estimated scf accuracy    <          1.0E-10 Ry

     iteration # 45     ecut=    80.00 Ry     beta= 0.20
     Davidson diagonalization with overlap

---- Real-time Memory Report at c_bands before calling an iterative solver
           121 MiB given to the printing process from OS
            84 MiB allocation reported by mallinfo(arena+hblkhd)
        124072 MiB available memory on the node where the printing process lives
------------------
     ethr =  1.33E-13,  avg # of iterations =  5.0

     total cpu time spent up to now is       19.0 secs

     total energy              =    -184.23260294 Ry
     estimated scf accuracy    <          2.3E-12 Ry

     iteration # 46     ecut=    80.00 Ry     beta= 0.20
     Davidson diagonalization with overlap

---- Real-time Memory Report at c_bands before calling an iterative solver
           121 MiB given to the printing process from OS
            84 MiB allocation reported by mallinfo(arena+hblkhd)
        124083 MiB available memory on the node where the printing process lives
------------------
     ethr =  1.00E-13,  avg # of iterations =  1.0

     total cpu time spent up to now is       19.3 secs

     total energy              =    -184.23260294 Ry
     estimated scf accuracy    <          3.6E-12 Ry

     iteration # 47     ecut=    80.00 Ry     beta= 0.20
     Davidson diagonalization with overlap

---- Real-time Memory Report at c_bands before calling an iterative solver
           121 MiB given to the printing process from OS
            84 MiB allocation reported by mallinfo(arena+hblkhd)
        124062 MiB available memory on the node where the printing process lives
------------------
     ethr =  1.00E-13,  avg # of iterations =  2.0

     total cpu time spent up to now is       19.5 secs

     total energy              =    -184.23260294 Ry
     estimated scf accuracy    <          2.8E-12 Ry

     iteration # 48     ecut=    80.00 Ry     beta= 0.20
     Davidson diagonalization with overlap

---- Real-time Memory Report at c_bands before calling an iterative solver
           121 MiB given to the printing process from OS
            84 MiB allocation reported by mallinfo(arena+hblkhd)
        124056 MiB available memory on the node where the printing process lives
------------------
     ethr =  1.00E-13,  avg # of iterations =  1.0

     total cpu time spent up to now is       19.7 secs

     total energy              =    -184.23260294 Ry
     estimated scf accuracy    <          2.4E-12 Ry

     iteration # 49     ecut=    80.00 Ry     beta= 0.20
     Davidson diagonalization with overlap

---- Real-time Memory Report at c_bands before calling an iterative solver
           121 MiB given to the printing process from OS
            84 MiB allocation reported by mallinfo(arena+hblkhd)
        123891 MiB available memory on the node where the printing process lives
------------------
     ethr =  1.00E-13,  avg # of iterations =  1.0

     total cpu time spent up to now is       20.0 secs

     total energy              =    -184.23260294 Ry
     estimated scf accuracy    <          1.1E-12 Ry

     iteration # 50     ecut=    80.00 Ry     beta= 0.20
     Davidson diagonalization with overlap

---- Real-time Memory Report at c_bands before calling an iterative solver
           121 MiB given to the printing process from OS
            84 MiB allocation reported by mallinfo(arena+hblkhd)
        123907 MiB available memory on the node where the printing process lives
------------------
     ethr =  1.00E-13,  avg # of iterations =  1.0

     total cpu time spent up to now is       20.3 secs

     total energy              =    -184.23260294 Ry
     estimated scf accuracy    <          2.0E-13 Ry

     iteration # 51     ecut=    80.00 Ry     beta= 0.20
     Davidson diagonalization with overlap

---- Real-time Memory Report at c_bands before calling an iterative solver
           121 MiB given to the printing process from OS
            84 MiB allocation reported by mallinfo(arena+hblkhd)
        123933 MiB available memory on the node where the printing process lives
------------------
     ethr =  1.00E-13,  avg # of iterations =  1.0

     total cpu time spent up to now is       20.6 secs

     total energy              =    -184.23260294 Ry
     estimated scf accuracy    <          5.7E-14 Ry

     iteration # 52     ecut=    80.00 Ry     beta= 0.20
     Davidson diagonalization with overlap

---- Real-time Memory Report at c_bands before calling an iterative solver
           121 MiB given to the printing process from OS
            84 MiB allocation reported by mallinfo(arena+hblkhd)
        123964 MiB available memory on the node where the printing process lives
------------------
     ethr =  1.00E-13,  avg # of iterations =  1.0

     total cpu time spent up to now is       21.0 secs

     total energy              =    -184.23260294 Ry
     estimated scf accuracy    <          3.8E-14 Ry

     iteration # 53     ecut=    80.00 Ry     beta= 0.20
     Davidson diagonalization with overlap

---- Real-time Memory Report at c_bands before calling an iterative solver
           121 MiB given to the printing process from OS
            84 MiB allocation reported by mallinfo(arena+hblkhd)
        123884 MiB available memory on the node where the printing process lives
------------------
     ethr =  1.00E-13,  avg # of iterations =  1.0

     total cpu time spent up to now is       21.4 secs

     total energy              =    -184.23260294 Ry
     estimated scf accuracy    <          1.1E-13 Ry

     iteration # 54     ecut=    80.00 Ry     beta= 0.20
     Davidson diagonalization with overlap

---- Real-time Memory Report at c_bands before calling an iterative solver
           121 MiB given to the printing process from OS
            84 MiB allocation reported by mallinfo(arena+hblkhd)
        123936 MiB available memory on the node where the printing process lives
------------------
     ethr =  1.00E-13,  avg # of iterations =  1.0

     total cpu time spent up to now is       21.7 secs

     total energy              =    -184.23260294 Ry
     estimated scf accuracy    <          1.6E-13 Ry

     iteration # 55     ecut=    80.00 Ry     beta= 0.20
     Davidson diagonalization with overlap

---- Real-time Memory Report at c_bands before calling an iterative solver
           121 MiB given to the printing process from OS
            84 MiB allocation reported by mallinfo(arena+hblkhd)
        123861 MiB available memory on the node where the printing process lives
------------------
     ethr =  1.00E-13,  avg # of iterations =  1.0

     total cpu time spent up to now is       21.9 secs

     total energy              =    -184.23260294 Ry
     estimated scf accuracy    <          7.8E-13 Ry

     iteration # 56     ecut=    80.00 Ry     beta= 0.20
     Davidson diagonalization with overlap

---- Real-time Memory Report at c_bands before calling an iterative solver
           121 MiB given to the printing process from OS
            84 MiB allocation reported by mallinfo(arena+hblkhd)
        123905 MiB available memory on the node where the printing process lives
------------------
     ethr =  1.00E-13,  avg # of iterations =  1.0

     total cpu time spent up to now is       22.2 secs

     total energy              =    -184.23260294 Ry
     estimated scf accuracy    <          9.7E-13 Ry

     iteration # 57     ecut=    80.00 Ry     beta= 0.20
     Davidson diagonalization with overlap

---- Real-time Memory Report at c_bands before calling an iterative solver
           121 MiB given to the printing process from OS
            84 MiB allocation reported by mallinfo(arena+hblkhd)
        123966 MiB available memory on the node where the printing process lives
------------------
     ethr =  1.00E-13,  avg # of iterations =  1.0

     total cpu time spent up to now is       22.6 secs

     total energy              =    -184.23260294 Ry
     estimated scf accuracy    <          1.3E-12 Ry

     iteration # 58     ecut=    80.00 Ry     beta= 0.20
     Davidson diagonalization with overlap

---- Real-time Memory Report at c_bands before calling an iterative solver
           121 MiB given to the printing process from OS
            84 MiB allocation reported by mallinfo(arena+hblkhd)
        124000 MiB available memory on the node where the printing process lives
------------------
     ethr =  1.00E-13,  avg # of iterations =  1.0

     total cpu time spent up to now is       23.0 secs

     total energy              =    -184.23260294 Ry
     estimated scf accuracy    <          1.6E-12 Ry

     iteration # 59     ecut=    80.00 Ry     beta= 0.20
     Davidson diagonalization with overlap

---- Real-time Memory Report at c_bands before calling an iterative solver
           121 MiB given to the printing process from OS
            84 MiB allocation reported by mallinfo(arena+hblkhd)
        123963 MiB available memory on the node where the printing process lives
------------------
     ethr =  1.00E-13,  avg # of iterations =  1.0

     total cpu time spent up to now is       23.6 secs

     total energy              =    -184.23260294 Ry
     estimated scf accuracy    <          1.5E-12 Ry

     iteration # 60     ecut=    80.00 Ry     beta= 0.20
     Davidson diagonalization with overlap

---- Real-time Memory Report at c_bands before calling an iterative solver
           121 MiB given to the printing process from OS
            84 MiB allocation reported by mallinfo(arena+hblkhd)
        123927 MiB available memory on the node where the printing process lives
------------------
     ethr =  1.00E-13,  avg # of iterations =  1.0

     total cpu time spent up to now is       23.8 secs

     total energy              =    -184.23260294 Ry
     estimated scf accuracy    <          6.3E-13 Ry

     iteration # 61     ecut=    80.00 Ry     beta= 0.20
     Davidson diagonalization with overlap

---- Real-time Memory Report at c_bands before calling an iterative solver
           121 MiB given to the printing process from OS
            84 MiB allocation reported by mallinfo(arena+hblkhd)
        123779 MiB available memory on the node where the printing process lives
------------------
     ethr =  1.00E-13,  avg # of iterations =  1.0

     total cpu time spent up to now is       24.1 secs

     total energy              =    -184.23260294 Ry
     estimated scf accuracy    <          2.9E-13 Ry

     iteration # 62     ecut=    80.00 Ry     beta= 0.20
     Davidson diagonalization with overlap

---- Real-time Memory Report at c_bands before calling an iterative solver
           121 MiB given to the printing process from OS
            84 MiB allocation reported by mallinfo(arena+hblkhd)
        123864 MiB available memory on the node where the printing process lives
------------------
     ethr =  1.00E-13,  avg # of iterations =  1.0

     total cpu time spent up to now is       24.4 secs

     total energy              =    -184.23260294 Ry
     estimated scf accuracy    <          3.4E-13 Ry

     iteration # 63     ecut=    80.00 Ry     beta= 0.20
     Davidson diagonalization with overlap

---- Real-time Memory Report at c_bands before calling an iterative solver
           121 MiB given to the printing process from OS
            84 MiB allocation reported by mallinfo(arena+hblkhd)
        123864 MiB available memory on the node where the printing process lives
------------------
     ethr =  1.00E-13,  avg # of iterations =  1.0

     total cpu time spent up to now is       24.8 secs

     total energy              =    -184.23260294 Ry
     estimated scf accuracy    <          2.6E-13 Ry

     iteration # 64     ecut=    80.00 Ry     beta= 0.20
     Davidson diagonalization with overlap

---- Real-time Memory Report at c_bands before calling an iterative solver
           121 MiB given to the printing process from OS
            84 MiB allocation reported by mallinfo(arena+hblkhd)
        123864 MiB available memory on the node where the printing process lives
------------------
     ethr =  1.00E-13,  avg # of iterations =  1.0

     total cpu time spent up to now is       25.2 secs

     total energy              =    -184.23260294 Ry
     estimated scf accuracy    <          2.4E-13 Ry

     iteration # 65     ecut=    80.00 Ry     beta= 0.20
     Davidson diagonalization with overlap

---- Real-time Memory Report at c_bands before calling an iterative solver
           121 MiB given to the printing process from OS
            84 MiB allocation reported by mallinfo(arena+hblkhd)
        123885 MiB available memory on the node where the printing process lives
------------------
     ethr =  1.00E-13,  avg # of iterations =  1.0

     total cpu time spent up to now is       25.5 secs

     total energy              =    -184.23260294 Ry
     estimated scf accuracy    <          1.8E-13 Ry

     iteration # 66     ecut=    80.00 Ry     beta= 0.20
     Davidson diagonalization with overlap

---- Real-time Memory Report at c_bands before calling an iterative solver
           121 MiB given to the printing process from OS
            84 MiB allocation reported by mallinfo(arena+hblkhd)
        123834 MiB available memory on the node where the printing process lives
------------------
     ethr =  1.00E-13,  avg # of iterations =  1.0

     total cpu time spent up to now is       25.8 secs

     total energy              =    -184.23260294 Ry
     estimated scf accuracy    <          2.4E-13 Ry

     iteration # 67     ecut=    80.00 Ry     beta= 0.20
     Davidson diagonalization with overlap

---- Real-time Memory Report at c_bands before calling an iterative solver
           121 MiB given to the printing process from OS
            84 MiB allocation reported by mallinfo(arena+hblkhd)
        123701 MiB available memory on the node where the printing process lives
------------------
     ethr =  1.00E-13,  avg # of iterations =  1.0

     total cpu time spent up to now is       26.0 secs

     total energy              =    -184.23260294 Ry
     estimated scf accuracy    <          2.5E-13 Ry

     iteration # 68     ecut=    80.00 Ry     beta= 0.20
     Davidson diagonalization with overlap

---- Real-time Memory Report at c_bands before calling an iterative solver
           121 MiB given to the printing process from OS
            84 MiB allocation reported by mallinfo(arena+hblkhd)
        123820 MiB available memory on the node where the printing process lives
------------------
     ethr =  1.00E-13,  avg # of iterations =  1.0

     total cpu time spent up to now is       26.4 secs

     total energy              =    -184.23260294 Ry
     estimated scf accuracy    <          3.8E-13 Ry

     iteration # 69     ecut=    80.00 Ry     beta= 0.20
     Davidson diagonalization with overlap

---- Real-time Memory Report at c_bands before calling an iterative solver
           121 MiB given to the printing process from OS
            84 MiB allocation reported by mallinfo(arena+hblkhd)
        123841 MiB available memory on the node where the printing process lives
------------------
     ethr =  1.00E-13,  avg # of iterations =  1.0

     total cpu time spent up to now is       26.8 secs

     total energy              =    -184.23260294 Ry
     estimated scf accuracy    <          4.3E-13 Ry

     iteration # 70     ecut=    80.00 Ry     beta= 0.20
     Davidson diagonalization with overlap

---- Real-time Memory Report at c_bands before calling an iterative solver
           121 MiB given to the printing process from OS
            84 MiB allocation reported by mallinfo(arena+hblkhd)
        123741 MiB available memory on the node where the printing process lives
------------------
     ethr =  1.00E-13,  avg # of iterations =  1.0

     total cpu time spent up to now is       27.1 secs

     total energy              =    -184.23260294 Ry
     estimated scf accuracy    <          5.2E-13 Ry

     iteration # 71     ecut=    80.00 Ry     beta= 0.20
     Davidson diagonalization with overlap

---- Real-time Memory Report at c_bands before calling an iterative solver
           121 MiB given to the printing process from OS
            84 MiB allocation reported by mallinfo(arena+hblkhd)
        123613 MiB available memory on the node where the printing process lives
------------------
     ethr =  1.00E-13,  avg # of iterations =  1.0

     total cpu time spent up to now is       27.4 secs

     total energy              =    -184.23260294 Ry
     estimated scf accuracy    <          1.1E-14 Ry

     iteration # 72     ecut=    80.00 Ry     beta= 0.20
     Davidson diagonalization with overlap

---- Real-time Memory Report at c_bands before calling an iterative solver
           121 MiB given to the printing process from OS
            84 MiB allocation reported by mallinfo(arena+hblkhd)
        123653 MiB available memory on the node where the printing process lives
------------------
     ethr =  1.00E-13,  avg # of iterations =  1.0

     total cpu time spent up to now is       27.8 secs

     total energy              =    -184.23260294 Ry
     estimated scf accuracy    <          1.6E-14 Ry

     iteration # 73     ecut=    80.00 Ry     beta= 0.20
     Davidson diagonalization with overlap

---- Real-time Memory Report at c_bands before calling an iterative solver
           121 MiB given to the printing process from OS
            84 MiB allocation reported by mallinfo(arena+hblkhd)
        123633 MiB available memory on the node where the printing process lives
------------------
     ethr =  1.00E-13,  avg # of iterations =  1.0

     total cpu time spent up to now is       28.1 secs

     total energy              =    -184.23260294 Ry
     estimated scf accuracy    <          2.5E-15 Ry

     iteration # 74     ecut=    80.00 Ry     beta= 0.20
     Davidson diagonalization with overlap

---- Real-time Memory Report at c_bands before calling an iterative solver
           121 MiB given to the printing process from OS
            84 MiB allocation reported by mallinfo(arena+hblkhd)
        123645 MiB available memory on the node where the printing process lives
------------------
     ethr =  1.00E-13,  avg # of iterations =  1.0

     total cpu time spent up to now is       28.5 secs

     total energy              =    -184.23260294 Ry
     estimated scf accuracy    <          1.7E-14 Ry

     iteration # 75     ecut=    80.00 Ry     beta= 0.20
     Davidson diagonalization with overlap

---- Real-time Memory Report at c_bands before calling an iterative solver
           121 MiB given to the printing process from OS
            84 MiB allocation reported by mallinfo(arena+hblkhd)
        123665 MiB available memory on the node where the printing process lives
------------------
     ethr =  1.00E-13,  avg # of iterations =  1.0

     total cpu time spent up to now is       28.8 secs

     total energy              =    -184.23260294 Ry
     estimated scf accuracy    <          1.7E-14 Ry

     iteration # 76     ecut=    80.00 Ry     beta= 0.20
     Davidson diagonalization with overlap

---- Real-time Memory Report at c_bands before calling an iterative solver
           121 MiB given to the printing process from OS
            84 MiB allocation reported by mallinfo(arena+hblkhd)
        123654 MiB available memory on the node where the printing process lives
------------------
     ethr =  1.00E-13,  avg # of iterations =  1.0

     total cpu time spent up to now is       29.2 secs

     total energy              =    -184.23260294 Ry
     estimated scf accuracy    <          7.8E-15 Ry

     iteration # 77     ecut=    80.00 Ry     beta= 0.20
     Davidson diagonalization with overlap

---- Real-time Memory Report at c_bands before calling an iterative solver
           121 MiB given to the printing process from OS
            84 MiB allocation reported by mallinfo(arena+hblkhd)
        123596 MiB available memory on the node where the printing process lives
------------------
     ethr =  1.00E-13,  avg # of iterations =  1.0

     total cpu time spent up to now is       29.5 secs

     total energy              =    -184.23260294 Ry
     estimated scf accuracy    <          4.9E-15 Ry

     iteration # 78     ecut=    80.00 Ry     beta= 0.20
     Davidson diagonalization with overlap

---- Real-time Memory Report at c_bands before calling an iterative solver
           121 MiB given to the printing process from OS
            84 MiB allocation reported by mallinfo(arena+hblkhd)
        123406 MiB available memory on the node where the printing process lives
------------------
     ethr =  1.00E-13,  avg # of iterations =  1.0

     total cpu time spent up to now is       29.8 secs

     total energy              =    -184.23260294 Ry
     estimated scf accuracy    <          4.1E-15 Ry

     iteration # 79     ecut=    80.00 Ry     beta= 0.20
     Davidson diagonalization with overlap

---- Real-time Memory Report at c_bands before calling an iterative solver
           121 MiB given to the printing process from OS
            84 MiB allocation reported by mallinfo(arena+hblkhd)
        123539 MiB available memory on the node where the printing process lives
------------------
     ethr =  1.00E-13,  avg # of iterations =  1.0

     total cpu time spent up to now is       30.1 secs

     total energy              =    -184.23260294 Ry
     estimated scf accuracy    <          2.2E-15 Ry

     iteration # 80     ecut=    80.00 Ry     beta= 0.20
     Davidson diagonalization with overlap

---- Real-time Memory Report at c_bands before calling an iterative solver
           121 MiB given to the printing process from OS
            84 MiB allocation reported by mallinfo(arena+hblkhd)
        123704 MiB available memory on the node where the printing process lives
------------------
     ethr =  1.00E-13,  avg # of iterations =  1.0

     total cpu time spent up to now is       30.3 secs

     total energy              =    -184.23260294 Ry
     estimated scf accuracy    <          4.2E-15 Ry

     iteration # 81     ecut=    80.00 Ry     beta= 0.20
     Davidson diagonalization with overlap

---- Real-time Memory Report at c_bands before calling an iterative solver
           121 MiB given to the printing process from OS
            84 MiB allocation reported by mallinfo(arena+hblkhd)
        123718 MiB available memory on the node where the printing process lives
------------------
     ethr =  1.00E-13,  avg # of iterations =  1.0

     total cpu time spent up to now is       30.5 secs

     total energy              =    -184.23260294 Ry
     estimated scf accuracy    <          6.2E-15 Ry

     iteration # 82     ecut=    80.00 Ry     beta= 0.20
     Davidson diagonalization with overlap

---- Real-time Memory Report at c_bands before calling an iterative solver
           121 MiB given to the printing process from OS
            84 MiB allocation reported by mallinfo(arena+hblkhd)
        123696 MiB available memory on the node where the printing process lives
------------------
     ethr =  1.00E-13,  avg # of iterations =  1.0

     total cpu time spent up to now is       30.8 secs

     total energy              =    -184.23260294 Ry
     estimated scf accuracy    <          6.2E-15 Ry

     iteration # 83     ecut=    80.00 Ry     beta= 0.20
     Davidson diagonalization with overlap

---- Real-time Memory Report at c_bands before calling an iterative solver
           121 MiB given to the printing process from OS
            84 MiB allocation reported by mallinfo(arena+hblkhd)
        123785 MiB available memory on the node where the printing process lives
------------------
     ethr =  1.00E-13,  avg # of iterations =  1.0

     total cpu time spent up to now is       31.2 secs

     total energy              =    -184.23260294 Ry
     estimated scf accuracy    <          2.8E-14 Ry

     iteration # 84     ecut=    80.00 Ry     beta= 0.20
     Davidson diagonalization with overlap

---- Real-time Memory Report at c_bands before calling an iterative solver
           121 MiB given to the printing process from OS
            84 MiB allocation reported by mallinfo(arena+hblkhd)
        123700 MiB available memory on the node where the printing process lives
------------------
     ethr =  1.00E-13,  avg # of iterations =  1.0

     total cpu time spent up to now is       31.5 secs

     total energy              =    -184.23260294 Ry
     estimated scf accuracy    <          3.1E-14 Ry

     iteration # 85     ecut=    80.00 Ry     beta= 0.20
     Davidson diagonalization with overlap

---- Real-time Memory Report at c_bands before calling an iterative solver
           121 MiB given to the printing process from OS
            84 MiB allocation reported by mallinfo(arena+hblkhd)
        123730 MiB available memory on the node where the printing process lives
------------------
     ethr =  1.00E-13,  avg # of iterations =  1.0

     total cpu time spent up to now is       31.7 secs

     End of self-consistent calculation

          k = 0.0000 0.0000 0.0000 (  7428 PWs)   bands (ev):

   -66.3105 -40.4764 -40.4433 -40.4433 -21.9265 -20.7629 -12.9035  -9.5786
    -9.5786  -9.3403  -8.6580  -8.6580  -6.8623

     occupation numbers 
     1.0000   1.0000   1.0000   1.0000   1.0000   1.0000   1.0000   1.0000
     1.0000   1.0000   1.0000   1.0000   1.0000

     highest occupied level (ev):    -6.8623

!    total energy              =    -184.23260294 Ry
     estimated scf accuracy    <          6.3E-16 Ry

     The total energy is the sum of the following terms:
     one-electron contribution =   -2100.92871132 Ry
     hartree contribution      =    1045.58393465 Ry
     xc contribution           =     -33.31086206 Ry
     ewald contribution        =     904.42303578 Ry

     convergence has been achieved in  85 iterations

     Writing all to output data dir ./tmp/MoS2.save/ :
     XML data file, charge density, pseudopotentials, collected wavefunctions

     init_run     :      2.08s CPU      2.46s WALL (       1 calls)
     electrons    :     16.89s CPU     29.16s WALL (       1 calls)

     Called by init_run:
     wfcinit      :      0.74s CPU      0.87s WALL (       1 calls)
     wfcinit:atom :      0.00s CPU      0.01s WALL (       1 calls)
     wfcinit:wfcr :      0.74s CPU      0.82s WALL (       1 calls)
     potinit      :      0.17s CPU      0.27s WALL (       1 calls)
     hinit0       :      1.14s CPU      1.29s WALL (       1 calls)

     Called by electrons:
     c_bands      :      7.78s CPU     12.02s WALL (      85 calls)
     sum_band     :      1.81s CPU      3.06s WALL (      85 calls)
     v_of_rho     :      6.10s CPU     10.52s WALL (      86 calls)
     v_h          :      0.31s CPU      0.55s WALL (      86 calls)
     v_xc         :      5.77s CPU      9.73s WALL (      86 calls)
     mix_rho      :      1.06s CPU      2.08s WALL (      85 calls)

     Called by c_bands:
     init_us_2    :      0.53s CPU      1.19s WALL (     171 calls)
     regterg      :      6.52s CPU      9.45s WALL (      85 calls)

     Called by sum_band:
     sum_band:wei :      0.01s CPU      0.18s WALL (      85 calls)
     sum_band:loo :      1.26s CPU      1.87s WALL (      85 calls)
     sum_band:buf :      0.00s CPU      0.00s WALL (      85 calls)
     sum_band:ini :      0.27s CPU      0.60s WALL (      85 calls)

     Called by *egterg:
     rdiaghg      :      0.06s CPU      0.18s WALL (     280 calls)
     regterg:over :      0.14s CPU      0.24s WALL (     195 calls)
     regterg:upda :      0.09s CPU      0.20s WALL (     195 calls)
     regterg:last :      0.10s CPU      0.15s WALL (     138 calls)
     h_psi        :      6.68s CPU      8.78s WALL (     281 calls)
     g_psi        :      0.03s CPU      0.05s WALL (     195 calls)

     Called by h_psi:
     h_psi:calbec :      0.30s CPU      0.68s WALL (     281 calls)
     vloc_psi     :      6.07s CPU      7.36s WALL (     281 calls)
                                        0.00s GPU  (     281 calls)
     add_vuspsi   :      0.26s CPU      0.37s WALL (     281 calls)

     General routines
     calbec       :      0.28s CPU      0.53s WALL (     281 calls)
     fft          :      2.44s CPU      2.87s WALL (     688 calls)
     ffts         :      0.21s CPU      0.25s WALL (      85 calls)
     fftw         :      5.68s CPU      6.34s WALL (    3467 calls)

     Parallel routines

     PWSCF        :     19.03s CPU     31.96s WALL


   This run was terminated on:  12: 0:24  23Feb2026            

=------------------------------------------------------------------------------=
   JOB DONE.
=------------------------------------------------------------------------------=
