
     Program PWSCF v.7.5 starts on  5Mar2026 at 12:25:34 
        Git branch: HEAD
        Last git commit: 770a0b2d12928a67048e2f3da8d10d057e52179e
        Last git commit date: Tue Aug 19 09:57:12 2025 +0000
        Last git commit subject: Merge branch 'QE-7.5-RC' into 'master'

     This program is part of the open-source Quantum ESPRESSO suite
     for quantum simulation of materials; please cite
         "P. Giannozzi et al., J. Phys.:Condens. Matter 21 395502 (2009);
         "P. Giannozzi et al., J. Phys.:Condens. Matter 29 465901 (2017);
         "P. Giannozzi et al., J. Chem. Phys. 152 154105 (2020);
          URL http://www.quantum-espresso.org", 
     in publications or presentations arising from this work. More details at
     http://www.quantum-espresso.org/quote

     Parallel version (MPI), running on   256 processors

     MPI processes distributed on     8 nodes
     239150 MiB available memory on the printing compute node when the environment starts

     Waiting for input...
     Reading input from standard input

     Current dimensions of program PWSCF are:
     Max number of different atomic species (ntypx) = 10
     Max number of k-points (npk) =  40000
     Max angular momentum in pseudopotentials (lmaxx) =  4

     Atomic positions and unit cell read from directory:
     ./tmp/NiI2.save/


     K-points division:     npool     =       8
     R & G space division:  proc/nbgrp/npool/nimage =      32
     Subspace diagonalization in iterative solution of the eigenvalue problem:
     one sub-group per band group will be used
     custom distributed-memory algorithm (size of sub-group:  2*  2 procs)


     Parallelization info
     --------------------
     sticks:   dense  smooth     PW     G-vecs:    dense   smooth      PW
     Min          96      96     30                 1853     1853     328
     Max          97      97     31                 1855     1855     330
     Sum        3099    3099    979                59333    59333   10525

     Using Slab Decomposition



     bravais-lattice index     =            5
     lattice parameter (alat)  =      26.8360  a.u.
     unit-cell volume          =    1281.9023 (a.u.)^3
     number of atoms/cell      =            6
     number of atomic types    =            3
     number of electrons       =        64.00
     number of Kohn-Sham states=          200
     kinetic-energy cutoff     =      49.0000  Ry
     charge density cutoff     =     196.0000  Ry
     Exchange-correlation= PBESOL
                           (   1   4  10   8   0   0   0)

     celldm(1)=  26.836001  celldm(2)=   0.000000  celldm(3)=   0.000000
     celldm(4)=   0.961200  celldm(5)=   0.000000  celldm(6)=   0.000000

     crystal axes: (cart. coord. in units of alat)
               a(1) = (   0.139284  -0.080416   0.986982 )  
               a(2) = (   0.000000   0.160831   0.986982 )  
               a(3) = (  -0.139284  -0.080416   0.986982 )  

     reciprocal axes: (cart. coord. in units 2 pi/alat)
               b(1) = (  3.589791 -2.072567  0.337730 )  
               b(2) = (  0.000000  4.145133  0.337730 )  
               b(3) = ( -3.589791 -2.072567  0.337730 )  


     PseudoPot. # 1 for Ni read from file:
     Pseudos/Ni_pbesol.upf
     MD5 check sum: 3ec56ad6bf78c9cc1bbec815420e1c7d
     Pseudo is Norm-conserving + core correction, Zval = 18.0
     Generated using ONCVPSP code by D. R. Hamann
     Using radial grid of 1356 points,  6 beta functions with: 
                l(1) =   0
                l(2) =   0
                l(3) =   1
                l(4) =   1
                l(5) =   2
                l(6) =   2

     PseudoPot. # 2 for Ni read from file:
     Pseudos/Ni_pbesol.upf
     MD5 check sum: 3ec56ad6bf78c9cc1bbec815420e1c7d
     Pseudo is Norm-conserving + core correction, Zval = 18.0
     Generated using ONCVPSP code by D. R. Hamann
     Using radial grid of 1356 points,  6 beta functions with: 
                l(1) =   0
                l(2) =   0
                l(3) =   1
                l(4) =   1
                l(5) =   2
                l(6) =   2

     PseudoPot. # 3 for I  read from file:
     Pseudos/I_pbesol.upf
     MD5 check sum: 80ed5ceb2eb9c553cfb6760a299d9c5b
     Pseudo is Norm-conserving + core correction, Zval =  7.0
     Generated using ONCVPSP code by D. R. Hamann
     Using radial grid of 1182 points,  6 beta functions with: 
                l(1) =   0
                l(2) =   0
                l(3) =   1
                l(4) =   1
                l(5) =   2
                l(6) =   2

     atomic species   valence    mass     pseudopotential
     Ni1              18.00    58.69340     Ni( 1.00)
     Ni2              18.00    58.69340     Ni( 1.00)
     I                 7.00   126.90447     I ( 1.00)

     Starting magnetic structure 
     atomic species   magnetization
     Ni1             0.000
     Ni2             0.000
     I               0.000

     12 Sym. Ops., with inversion, found


                                    s                        frac. trans.

      isym =  1     identity                                     

 cryst.   s( 1) = (     1          0          0      )
                  (     0          1          0      )
                  (     0          0          1      )

 cart.    s( 1) = (  1.0000000  0.0000000  0.0000000 )
                  (  0.0000000  1.0000000  0.0000000 )
                  ( -0.0000000 -0.0000000  1.0000000 )


      isym =  2     180 deg rotation - cart. axis [1,0,0]        

 cryst.   s( 2) = (     0          0         -1      )
                  (     0         -1          0      )
                  (    -1          0          0      )

 cart.    s( 2) = (  1.0000000 -0.0000000 -0.0000000 )
                  (  0.0000000 -1.0000000 -0.0000000 )
                  ( -0.0000000  0.0000000 -1.0000000 )


      isym =  3     120 deg rotation - cryst. axis [0,0,1]       

 cryst.   s( 3) = (     0          1          0      )
                  (     0          0          1      )
                  (     1          0          0      )

 cart.    s( 3) = ( -0.5000000 -0.8660254 -0.0000000 )
                  (  0.8660254 -0.5000000 -0.0000000 )
                  (  0.0000000  0.0000000  1.0000000 )


      isym =  4     120 deg rotation - cryst. axis [0,0,-1]      

 cryst.   s( 4) = (     0          0          1      )
                  (     1          0          0      )
                  (     0          1          0      )

 cart.    s( 4) = ( -0.5000000  0.8660254  0.0000000 )
                  ( -0.8660254 -0.5000000 -0.0000000 )
                  (  0.0000000 -0.0000000  1.0000000 )


      isym =  5     180 deg rotation - cryst. axis [0,1,0]       

 cryst.   s( 5) = (     0         -1          0      )
                  (    -1          0          0      )
                  (     0          0         -1      )

 cart.    s( 5) = ( -0.5000000 -0.8660254 -0.0000000 )
                  ( -0.8660254  0.5000000  0.0000000 )
                  (  0.0000000  0.0000000 -1.0000000 )


      isym =  6     180 deg rotation - cryst. axis [1,1,0]       

 cryst.   s( 6) = (    -1          0          0      )
                  (     0          0         -1      )
                  (     0         -1          0      )

 cart.    s( 6) = ( -0.5000000  0.8660254  0.0000000 )
                  (  0.8660254  0.5000000  0.0000000 )
                  ( -0.0000000 -0.0000000 -1.0000000 )


      isym =  7     inversion                                    

 cryst.   s( 7) = (    -1          0          0      )
                  (     0         -1          0      )
                  (     0          0         -1      )

 cart.    s( 7) = ( -1.0000000 -0.0000000 -0.0000000 )
                  ( -0.0000000 -1.0000000 -0.0000000 )
                  (  0.0000000  0.0000000 -1.0000000 )


      isym =  8     inv. 180 deg rotation - cart. axis [1,0,0]   

 cryst.   s( 8) = (     0          0          1      )
                  (     0          1          0      )
                  (     1          0          0      )

 cart.    s( 8) = ( -1.0000000  0.0000000  0.0000000 )
                  ( -0.0000000  1.0000000  0.0000000 )
                  (  0.0000000 -0.0000000  1.0000000 )


      isym =  9     inv. 120 deg rotation - cryst. axis [0,0,1]  

 cryst.   s( 9) = (     0         -1          0      )
                  (     0          0         -1      )
                  (    -1          0          0      )

 cart.    s( 9) = (  0.5000000  0.8660254  0.0000000 )
                  ( -0.8660254  0.5000000  0.0000000 )
                  ( -0.0000000 -0.0000000 -1.0000000 )


      isym = 10     inv. 120 deg rotation - cryst. axis [0,0,-1] 

 cryst.   s(10) = (     0          0         -1      )
                  (    -1          0          0      )
                  (     0         -1          0      )

 cart.    s(10) = (  0.5000000 -0.8660254 -0.0000000 )
                  (  0.8660254  0.5000000  0.0000000 )
                  ( -0.0000000  0.0000000 -1.0000000 )


      isym = 11     inv. 180 deg rotation - cryst. axis [0,1,0]  

 cryst.   s(11) = (     0          1          0      )
                  (     1          0          0      )
                  (     0          0          1      )

 cart.    s(11) = (  0.5000000  0.8660254  0.0000000 )
                  (  0.8660254 -0.5000000 -0.0000000 )
                  ( -0.0000000 -0.0000000  1.0000000 )


      isym = 12     inv. 180 deg rotation - cryst. axis [1,1,0]  

 cryst.   s(12) = (     1          0          0      )
                  (     0          0          1      )
                  (     0          1          0      )

 cart.    s(12) = (  0.5000000 -0.8660254 -0.0000000 )
                  ( -0.8660254 -0.5000000 -0.0000000 )
                  (  0.0000000  0.0000000  1.0000000 )


     point group D_3d (-3m) 
     there are  6 classes
     the character table:

       E     2C3   3C2'  i     2S6   3s_d 
A_1g   1.00  1.00  1.00  1.00  1.00  1.00
A_2g   1.00  1.00 -1.00  1.00  1.00 -1.00
E_g    2.00 -1.00  0.00  2.00 -1.00  0.00
A_1u   1.00  1.00  1.00 -1.00 -1.00 -1.00
A_2u   1.00  1.00 -1.00 -1.00 -1.00  1.00
E_u    2.00 -1.00  0.00 -2.00  1.00  0.00

     the symmetry operations in each class and the name of the first element:

     E        1
          identity                                               
     2C3      3    4
          120 deg rotation - cryst. axis [0,0,1]                 
     3C2'     2    5    6
          180 deg rotation - cart. axis [1,0,0]                  
     i        7
          inversion                                              
     2S6      9   10
          inv. 120 deg rotation - cryst. axis [0,0,1]            
     3s_d     8   11   12
          inv. 180 deg rotation - cart. axis [1,0,0]             

   Cartesian axes

     site n.     atom                  positions (alat units)
         1        Ni1    tau(   1) = (   0.0000000   0.0000000   0.0000000  )
         2        Ni2    tau(   2) = (   0.1392839   0.0804156   0.4934910  )
         3        I      tau(   3) = (  -0.0000000  -0.0000000   0.3856062  )
         4        I      tau(   4) = (   0.1392839   0.0804156   0.8790972  )
         5        I      tau(   5) = (   0.1392839   0.0804156   0.1078847  )
         6        I      tau(   6) = (   0.1392839  -0.0804156   0.6013757  )

   Crystallographic axes

     site n.     atom                  positions (cryst. coord.)
         1        Ni1    tau(   1) = (  0.0000000  0.0000000  0.0000000  )
         2        Ni2    tau(   2) = (  0.5000000  0.5000000 -0.5000000  )
         3        I      tau(   3) = (  0.1302308  0.1302308  0.1302308  )
         4        I      tau(   4) = (  0.6302308  0.6302308 -0.3697692  )
         5        I      tau(   5) = (  0.3697692  0.3697692 -0.6302308  )
         6        I      tau(   6) = (  0.8697692 -0.1302308 -0.1302308  )

     number of k points=    65
                       cart. coord. in units 2pi/alat
        k(    1) = (   0.0000000   0.0000000   0.0000000), wk =   0.0019531
        k(    2) = (  -0.4487238  -0.2590708   0.0422162), wk =   0.0117188
        k(    3) = (  -0.8974477  -0.5181417   0.0844325), wk =   0.0117188
        k(    4) = (  -1.3461715  -0.7772125   0.1266487), wk =   0.0117188
        k(    5) = (   1.7948954   1.0362833  -0.1688650), wk =   0.0058594
        k(    6) = (  -0.4487238   0.2590708   0.0844325), wk =   0.0117188
        k(    7) = (  -0.8974477   0.0000000   0.1266487), wk =   0.0234375
        k(    8) = (  -1.3461715  -0.2590708   0.1688650), wk =   0.0234375
        k(    9) = (   1.7948954   1.5544250  -0.1266487), wk =   0.0234375
        k(   10) = (   1.3461715   1.2953542  -0.0844325), wk =   0.0234375
        k(   11) = (   0.8974477   1.0362833  -0.0422162), wk =   0.0234375
        k(   12) = (   0.4487238   0.7772125   0.0000000), wk =   0.0117188
        k(   13) = (  -0.8974477   0.5181417   0.1688650), wk =   0.0117188
        k(   14) = (  -1.3461715   0.2590708   0.2110812), wk =   0.0234375
        k(   15) = (   1.7948954   2.0725667  -0.0844325), wk =   0.0234375
        k(   16) = (   1.3461715   1.8134958  -0.0422162), wk =   0.0234375
        k(   17) = (   0.8974477   1.5544250   0.0000000), wk =   0.0117188
        k(   18) = (  -1.3461715   0.7772125   0.2532974), wk =   0.0117188
        k(   19) = (   1.7948954   2.5907084  -0.0422162), wk =   0.0234375
        k(   20) = (   1.3461715   2.3316375   0.0000000), wk =   0.0117188
        k(   21) = (   1.7948954  -1.0362833  -0.3377299), wk =   0.0058594
        k(   22) = (   0.0000000   0.0000000   0.1266487), wk =   0.0039062
        k(   23) = (  -0.4487238  -0.2590708   0.1688650), wk =   0.0117188
        k(   24) = (  -0.8974477  -0.5181417   0.2110812), wk =   0.0117188
        k(   25) = (   2.2436192   1.2953542  -0.0844325), wk =   0.0117188
        k(   26) = (   1.7948954   1.0362833  -0.0422162), wk =   0.0117188
        k(   27) = (   1.3461715   0.7772125   0.0000000), wk =   0.0117188
        k(   28) = (   0.8974477   0.5181417   0.0422162), wk =   0.0117188
        k(   29) = (  -0.4487238   0.2590708   0.2110812), wk =   0.0117188
        k(   30) = (  -0.8974477  -0.0000000   0.2532974), wk =   0.0234375
        k(   31) = (   2.2436192   1.8134958  -0.0422162), wk =   0.0234375
        k(   32) = (   1.7948954   1.5544250   0.0000000), wk =   0.0234375
        k(   33) = (   1.3461715   1.2953542   0.0422162), wk =   0.0234375
        k(   34) = (   0.8974477   1.0362833   0.0844325), wk =   0.0234375
        k(   35) = (  -0.8974477   0.5181417   0.2955137), wk =   0.0117188
        k(   36) = (   2.2436192   2.3316375   0.0000000), wk =   0.0234375
        k(   37) = (   1.7948954   2.0725667   0.0422162), wk =   0.0234375
        k(   38) = (   1.3461715   1.8134958   0.0844325), wk =   0.0234375
        k(   39) = (   0.8974477   1.5544250   0.1266487), wk =   0.0234375
        k(   40) = (   2.2436192  -1.2953542  -0.2955137), wk =   0.0117188
        k(   41) = (   1.7948954  -1.5544250  -0.2532974), wk =   0.0234375
        k(   42) = (   1.3461715  -1.8134958  -0.2110812), wk =   0.0234375
        k(   43) = (   0.8974477  -2.0725667  -0.1688650), wk =   0.0117188
        k(   44) = (   1.7948954  -1.0362833  -0.2110812), wk =   0.0117188
        k(   45) = (   1.3461715  -1.2953542  -0.1688650), wk =   0.0234375
        k(   46) = (   1.3461715  -0.7772125  -0.1266487), wk =   0.0117188
        k(   47) = (   0.0000000   0.0000000   0.2532974), wk =   0.0039062
        k(   48) = (  -0.4487238  -0.2590708   0.2955137), wk =   0.0117188
        k(   49) = (   2.6923431   1.5544250   0.0000000), wk =   0.0117188
        k(   50) = (   2.2436192   1.2953542   0.0422162), wk =   0.0117188
        k(   51) = (   1.7948954   1.0362833   0.0844325), wk =   0.0117188
        k(   52) = (  -0.4487238   0.2590708   0.3377299), wk =   0.0117188
        k(   53) = (   2.6923431   2.0725667   0.0422162), wk =   0.0234375
        k(   54) = (   2.2436192   1.8134958   0.0844325), wk =   0.0234375
        k(   55) = (   1.7948954   1.5544250   0.1266487), wk =   0.0234375
        k(   56) = (   2.6923431  -1.5544250  -0.2532974), wk =   0.0117188
        k(   57) = (   2.2436192  -1.8134958  -0.2110812), wk =   0.0234375
        k(   58) = (   1.7948954  -2.0725667  -0.1688650), wk =   0.0117188
        k(   59) = (   2.2436192  -1.2953542  -0.1688650), wk =   0.0117188
        k(   60) = (   0.0000000   0.0000000   0.3799462), wk =   0.0039062
        k(   61) = (   3.1410669   1.8134958   0.0844325), wk =   0.0117188
        k(   62) = (   2.6923431   1.5544250   0.1266487), wk =   0.0117188
        k(   63) = (   3.1410669  -1.8134958  -0.2110812), wk =   0.0117188
        k(   64) = (   2.6923431  -2.0725667  -0.1688650), wk =   0.0117188
        k(   65) = (   0.0000000   0.0000000  -0.5065949), wk =   0.0019531

                       cryst. coord.
        k(    1) = (   0.0000000   0.0000000   0.0000000), wk =   0.0019531
        k(    2) = (   0.0000000  -0.0000000   0.1250000), wk =   0.0117188
        k(    3) = (   0.0000000  -0.0000000   0.2500000), wk =   0.0117188
        k(    4) = (  -0.0000000  -0.0000000   0.3750000), wk =   0.0117188
        k(    5) = (  -0.0000000   0.0000000  -0.5000000), wk =   0.0058594
        k(    6) = (  -0.0000000   0.1250000   0.1250000), wk =   0.0117188
        k(    7) = (   0.0000000   0.1250000   0.2500000), wk =   0.0234375
        k(    8) = (   0.0000000   0.1250000   0.3750000), wk =   0.0234375
        k(    9) = (  -0.0000000   0.1250000  -0.5000000), wk =   0.0234375
        k(   10) = (  -0.0000000   0.1250000  -0.3750000), wk =   0.0234375
        k(   11) = (  -0.0000000   0.1250000  -0.2500000), wk =   0.0234375
        k(   12) = (   0.0000000   0.1250000  -0.1250000), wk =   0.0117188
        k(   13) = (  -0.0000000   0.2500000   0.2500000), wk =   0.0117188
        k(   14) = (   0.0000000   0.2500000   0.3750000), wk =   0.0234375
        k(   15) = (  -0.0000000   0.2500000  -0.5000000), wk =   0.0234375
        k(   16) = (  -0.0000000   0.2500000  -0.3750000), wk =   0.0234375
        k(   17) = (   0.0000000   0.2500000  -0.2500000), wk =   0.0117188
        k(   18) = (   0.0000000   0.3750000   0.3750000), wk =   0.0117188
        k(   19) = (  -0.0000000   0.3750000  -0.5000000), wk =   0.0234375
        k(   20) = (   0.0000000   0.3750000  -0.3750000), wk =   0.0117188
        k(   21) = (   0.0000000  -0.5000000  -0.5000000), wk =   0.0058594
        k(   22) = (   0.1250000   0.1250000   0.1250000), wk =   0.0039062
        k(   23) = (   0.1250000   0.1250000   0.2500000), wk =   0.0117188
        k(   24) = (   0.1250000   0.1250000   0.3750000), wk =   0.0117188
        k(   25) = (   0.1250000   0.1250000  -0.5000000), wk =   0.0117188
        k(   26) = (   0.1250000   0.1250000  -0.3750000), wk =   0.0117188
        k(   27) = (   0.1250000   0.1250000  -0.2500000), wk =   0.0117188
        k(   28) = (   0.1250000   0.1250000  -0.1250000), wk =   0.0117188
        k(   29) = (   0.1250000   0.2500000   0.2500000), wk =   0.0117188
        k(   30) = (   0.1250000   0.2500000   0.3750000), wk =   0.0234375
        k(   31) = (   0.1250000   0.2500000  -0.5000000), wk =   0.0234375
        k(   32) = (   0.1250000   0.2500000  -0.3750000), wk =   0.0234375
        k(   33) = (   0.1250000   0.2500000  -0.2500000), wk =   0.0234375
        k(   34) = (   0.1250000   0.2500000  -0.1250000), wk =   0.0234375
        k(   35) = (   0.1250000   0.3750000   0.3750000), wk =   0.0117188
        k(   36) = (   0.1250000   0.3750000  -0.5000000), wk =   0.0234375
        k(   37) = (   0.1250000   0.3750000  -0.3750000), wk =   0.0234375
        k(   38) = (   0.1250000   0.3750000  -0.2500000), wk =   0.0234375
        k(   39) = (   0.1250000   0.3750000  -0.1250000), wk =   0.0234375
        k(   40) = (   0.1250000  -0.5000000  -0.5000000), wk =   0.0117188
        k(   41) = (   0.1250000  -0.5000000  -0.3750000), wk =   0.0234375
        k(   42) = (   0.1250000  -0.5000000  -0.2500000), wk =   0.0234375
        k(   43) = (   0.1250000  -0.5000000  -0.1250000), wk =   0.0117188
        k(   44) = (   0.1250000  -0.3750000  -0.3750000), wk =   0.0117188
        k(   45) = (   0.1250000  -0.3750000  -0.2500000), wk =   0.0234375
        k(   46) = (   0.1250000  -0.2500000  -0.2500000), wk =   0.0117188
        k(   47) = (   0.2500000   0.2500000   0.2500000), wk =   0.0039062
        k(   48) = (   0.2500000   0.2500000   0.3750000), wk =   0.0117188
        k(   49) = (   0.2500000   0.2500000  -0.5000000), wk =   0.0117188
        k(   50) = (   0.2500000   0.2500000  -0.3750000), wk =   0.0117188
        k(   51) = (   0.2500000   0.2500000  -0.2500000), wk =   0.0117188
        k(   52) = (   0.2500000   0.3750000   0.3750000), wk =   0.0117188
        k(   53) = (   0.2500000   0.3750000  -0.5000000), wk =   0.0234375
        k(   54) = (   0.2500000   0.3750000  -0.3750000), wk =   0.0234375
        k(   55) = (   0.2500000   0.3750000  -0.2500000), wk =   0.0234375
        k(   56) = (   0.2500000  -0.5000000  -0.5000000), wk =   0.0117188
        k(   57) = (   0.2500000  -0.5000000  -0.3750000), wk =   0.0234375
        k(   58) = (   0.2500000  -0.5000000  -0.2500000), wk =   0.0117188
        k(   59) = (   0.2500000  -0.3750000  -0.3750000), wk =   0.0117188
        k(   60) = (   0.3750000   0.3750000   0.3750000), wk =   0.0039062
        k(   61) = (   0.3750000   0.3750000  -0.5000000), wk =   0.0117188
        k(   62) = (   0.3750000   0.3750000  -0.3750000), wk =   0.0117188
        k(   63) = (   0.3750000  -0.5000000  -0.5000000), wk =   0.0117188
        k(   64) = (   0.3750000  -0.5000000  -0.3750000), wk =   0.0117188
        k(   65) = (  -0.5000000  -0.5000000  -0.5000000), wk =   0.0019531

     Dense  grid:    59333 G-vectors     FFT dimensions: ( 120, 120, 120)

     Dynamical RAM for                 wfc:       0.71 MB

     Dynamical RAM for     wfc (w. buffer):       0.71 MB

     Dynamical RAM for           str. fact:       0.08 MB

     Dynamical RAM for           local pot:       0.00 MB

     Dynamical RAM for          nlocal pot:       0.38 MB

     Dynamical RAM for                qrad:       3.37 MB

     Dynamical RAM for          rho,v,vnew:       2.81 MB

     Dynamical RAM for           G-vectors:       0.12 MB

     Dynamical RAM for          h,s,v(r/c):       1.83 MB

     Dynamical RAM for          <psi|beta>:       0.33 MB

     Dynamical RAM for                 psi:       1.42 MB

     Dynamical RAM for                hpsi:       1.42 MB

     Dynamical RAM for      wfcinit/wfcrot:       2.33 MB

     Estimated static dynamical RAM per process >      10.23 MB

     Estimated max dynamical RAM per process >      15.22 MB

     Estimated total dynamical RAM >       3.80 GB

     Check: negative core charge=   -0.000024
     Generating pointlists ...
     new r_m :   0.0799 (alat units)  2.1438 (a.u.) for type    1
     new r_m :   0.0799 (alat units)  2.1438 (a.u.) for type    2
     new r_m :   0.0799 (alat units)  2.1438 (a.u.) for type    3

     The potential is recalculated from file :
     ./tmp/NiI2.save/charge-density

     Starting wfcs are   36 randomized atomic wfcs +  164 random wfcs

     Band Structure Calculation
     Davidson diagonalization with overlap

     Computing kpt #:     1  of    17 on this pool
     total cpu time spent up to now is       24.8 secs

     Computing kpt #:     2  of    17 on this pool
     total cpu time spent up to now is       35.3 secs

     Computing kpt #:     3  of    17 on this pool
     total cpu time spent up to now is       45.9 secs

     Computing kpt #:     4  of    17 on this pool
     total cpu time spent up to now is       56.5 secs

     Computing kpt #:     5  of    17 on this pool
     total cpu time spent up to now is       66.9 secs

     Computing kpt #:     6  of    17 on this pool
     total cpu time spent up to now is       77.3 secs

     Computing kpt #:     7  of    17 on this pool
     total cpu time spent up to now is       87.8 secs

     Computing kpt #:     8  of    17 on this pool
     total cpu time spent up to now is       98.3 secs

     Computing kpt #:     9  of    17 on this pool
     total cpu time spent up to now is      108.8 secs

     Computing kpt #:    10  of    17 on this pool
     total cpu time spent up to now is      119.4 secs

     Computing kpt #:    11  of    17 on this pool
     total cpu time spent up to now is      129.8 secs

     Computing kpt #:    12  of    17 on this pool
     total cpu time spent up to now is      140.4 secs

     Computing kpt #:    13  of    17 on this pool
     total cpu time spent up to now is      150.9 secs

     Computing kpt #:    14  of    17 on this pool
     total cpu time spent up to now is      161.4 secs

     Computing kpt #:    15  of    17 on this pool
     total cpu time spent up to now is      172.0 secs

     Computing kpt #:    16  of    17 on this pool
     total cpu time spent up to now is      182.5 secs

     Computing kpt #:    17  of    17 on this pool
     total cpu time spent up to now is      192.9 secs

     ethr =  9.37E-13,  avg # of iterations = 34.8

     total cpu time spent up to now is      193.0 secs

     End of band structure calculation

 ------ SPIN UP ------------


          k = 0.0000 0.0000 0.0000 (  7403 PWs)   bands (ev):

  -102.8533-101.7100 -61.7711 -61.7225 -61.7225 -60.4563 -60.4563 -60.4477
    -8.3003  -8.0597  -7.4813  -7.2033   0.4239   1.0416   1.7325   1.7325
     2.8128   2.8128   3.1332   3.1935   3.1935   3.5270   4.0898   4.0898
     4.2831   4.3558   4.4292   4.4292   4.6857   4.6857   5.3848   5.3848
     6.3375   6.3375   8.6434   9.6616   9.8416   9.8557  11.5711  11.5711
    11.7513  11.7513  12.2026  12.6300  14.0359  14.1039  14.1039  14.4190
    14.4190  14.5070  15.6206  15.8485  15.9153  16.4342  16.4342  16.4572
    16.4572  17.0395  17.0398  17.0398  17.1134  17.6188  17.6188  19.1548
    19.3693  19.4095  19.4095  20.8047  20.8047  21.1537  21.1537  21.1821
    21.4319  22.7753  22.7753  23.3536  24.5892  25.0882  25.0882  25.2094
    25.2094  25.5878  25.9188  26.3132  26.6573  27.5867  27.5867  27.7662
    27.7662  30.4392  30.9970  30.9970  31.7892  32.3374  32.5151  32.5818
    32.5818  32.6862  33.3341  33.5387  33.7778  34.0658  34.1929  34.1929
    34.3500  34.3500  34.4382  34.5777  34.5777  34.6332  34.6332  35.4501
    35.4501  35.6110  35.6110  36.4936  36.4936  36.6340  36.6340  36.7110
    36.7110  36.8477  36.8477  37.9448  38.3411  39.5637  39.5637  40.1432
    40.3752  40.5867  40.6191  40.7845  40.9724  40.9724  41.1519  41.1519
    41.2366  41.2896  41.3745  41.3745  42.0599  42.0599  42.2568  42.5766
    42.6967  42.8799  42.8799  43.2564  43.2564  43.3814  43.6422  43.7596
    43.7596  44.0621  44.4887  44.6230  44.6230  44.9057  45.0745  45.2841
    45.2841  45.5431  45.9769  45.9769  46.9550  47.3804  47.8765  47.8765
    47.8834  47.8834  48.2079  48.2190  48.5480  48.5480  48.7346  49.0701
    49.2602  49.2602  49.3271  49.3271  49.4806  49.7014  49.7014  50.0223
    50.4149  50.4149  50.4813  50.4813  50.5450  50.5450  50.5629  50.5629
    50.6765  50.6765  51.2068  51.2068  51.3865  51.3865  52.2814  52.2814

     occupation numbers 
     1.0000   1.0000   1.0000   1.0000   1.0000   1.0000   1.0000   1.0000
     1.0000   1.0000   1.0000   1.0000   1.0000   1.0000   1.0000   1.0000
     1.0000   1.0000   1.0000   1.0000   1.0000   1.0000   1.0000   1.0000
     1.0000   1.0000   1.0000   1.0000   1.0000   1.0000   1.0000   1.0000
     0.0000   0.0000   0.0000   0.0000   0.0000   0.0000   0.0000   0.0000
     0.0000   0.0000   0.0000   0.0000   0.0000   0.0000   0.0000   0.0000
     0.0000   0.0000   0.0000   0.0000   0.0000   0.0000   0.0000   0.0000
     0.0000   0.0000   0.0000   0.0000   0.0000   0.0000   0.0000   0.0000
     0.0000   0.0000   0.0000   0.0000   0.0000   0.0000   0.0000   0.0000
     0.0000   0.0000   0.0000   0.0000   0.0000   0.0000   0.0000   0.0000
     0.0000   0.0000   0.0000   0.0000   0.0000   0.0000   0.0000   0.0000
     0.0000   0.0000   0.0000   0.0000   0.0000   0.0000   0.0000   0.0000
     0.0000   0.0000   0.0000   0.0000   0.0000   0.0000   0.0000   0.0000
     0.0000   0.0000   0.0000   0.0000   0.0000   0.0000   0.0000   0.0000
     0.0000   0.0000   0.0000   0.0000   0.0000   0.0000   0.0000   0.0000
     0.0000   0.0000   0.0000   0.0000   0.0000   0.0000   0.0000   0.0000
     0.0000   0.0000   0.0000   0.0000   0.0000   0.0000   0.0000   0.0000
     0.0000   0.0000   0.0000   0.0000   0.0000   0.0000   0.0000   0.0000
     0.0000   0.0000   0.0000   0.0000   0.0000   0.0000   0.0000   0.0000
     0.0000   0.0000   0.0000   0.0000   0.0000   0.0000   0.0000   0.0000
     0.0000   0.0000   0.0000   0.0000   0.0000   0.0000   0.0000   0.0000
     0.0000   0.0000   0.0000   0.0000   0.0000   0.0000   0.0000   0.0000
     0.0000   0.0000   0.0000   0.0000   0.0000   0.0000   0.0000   0.0000
     0.0000   0.0000   0.0000   0.0000   0.0000   0.0000   0.0000   0.0000
     0.0000   0.0000   0.0000   0.0000   0.0000   0.0000   0.0000   0.0000

          k =-0.4487-0.2591 0.0422 (  7449 PWs)   bands (ev):

  -102.8562-101.7127 -61.7824 -61.7606 -61.7604 -60.4959 -60.4956 -60.4645
    -8.1923  -7.9512  -7.4222  -7.1457   0.5546   1.1139   1.5439   1.7111
     2.4155   2.7973   2.8881   3.0900   3.3320   3.4248   3.5224   3.8665
     4.0084   4.1169   4.3053   4.3652   4.5995   4.6677   4.8381   5.2747
     5.8486   6.2250   9.3028   9.9997  10.2569  10.5868  11.0335  11.5956
    11.9788  12.0236  12.1224  13.1165  13.2886  13.4249  13.6708  14.3434
    14.7482  14.7756  15.1184  15.4101  15.5617  16.3195  16.3204  16.8888
    17.0303  17.3732  17.7055  17.9462  18.0199  18.4654  18.6806  19.4916
    19.5538  19.6843  19.9045  20.4590  20.6024  20.7169  21.4984  21.5957
    22.3742  22.7109  23.2258  23.8713  24.1638  24.5369  25.2842  25.6050
    25.6664  26.2823  26.4279  26.4720  27.1889  27.2382  28.1276  28.7091
    28.9081  29.4289  29.8136  29.9880  30.5079  30.6263  31.1238  31.2221
    31.5957  31.6967  32.1347  32.2290  32.8035  32.8383  33.0614  33.1333
    33.3352  33.7184  33.7869  34.1559  34.3483  35.3674  35.3965  35.5351
    35.7523  35.8340  36.1374  36.6153  36.9425  37.3093  37.3471  37.4137
    38.0798  38.1162  38.2379  38.6494  39.0196  39.2677  39.4736  39.6459
    39.9248  40.0079  40.2277  40.2362  40.3642  40.4449  40.6449  40.7528
    40.7828  40.9172  41.1955  41.5857  41.6344  41.7738  41.7939  41.8896
    41.9685  42.8022  42.8306  42.8469  42.9418  43.1877  43.2688  43.6128
    44.0958  44.4088  44.6838  44.8024  44.9717  44.9985  45.2415  45.7475
    45.8429  46.0222  46.1663  46.2613  46.6220  46.7095  46.8290  46.9163
    47.3943  47.4400  47.5359  47.7240  47.7365  47.8846  48.3177  48.6377
    48.6613  48.7235  49.3181  49.6687  49.7475  49.8002  50.1115  50.2230
    50.2637  50.5718  50.6513  50.7372  50.8927  50.9369  51.2281  51.2903
    51.4136  51.7078  51.8560  51.9971  52.1083  52.6080  52.7106  52.7633

     occupation numbers 
     1.0000   1.0000   1.0000   1.0000   1.0000   1.0000   1.0000   1.0000
     1.0000   1.0000   1.0000   1.0000   1.0000   1.0000   1.0000   1.0000
     1.0000   1.0000   1.0000   1.0000   1.0000   1.0000   1.0000   1.0000
     1.0000   1.0000   1.0000   1.0000   1.0000   1.0000   1.0000   1.0000
     0.0000   0.0000   0.0000   0.0000   0.0000   0.0000   0.0000   0.0000
     0.0000   0.0000   0.0000   0.0000   0.0000   0.0000   0.0000   0.0000
     0.0000   0.0000   0.0000   0.0000   0.0000   0.0000   0.0000   0.0000
     0.0000   0.0000   0.0000   0.0000   0.0000   0.0000   0.0000   0.0000
     0.0000   0.0000   0.0000   0.0000   0.0000   0.0000   0.0000   0.0000
     0.0000   0.0000   0.0000   0.0000   0.0000   0.0000   0.0000   0.0000
     0.0000   0.0000   0.0000   0.0000   0.0000   0.0000   0.0000   0.0000
     0.0000   0.0000   0.0000   0.0000   0.0000   0.0000   0.0000   0.0000
     0.0000   0.0000   0.0000   0.0000   0.0000   0.0000   0.0000   0.0000
     0.0000   0.0000   0.0000   0.0000   0.0000   0.0000   0.0000   0.0000
     0.0000   0.0000   0.0000   0.0000   0.0000   0.0000   0.0000   0.0000
     0.0000   0.0000   0.0000   0.0000   0.0000   0.0000   0.0000   0.0000
     0.0000   0.0000   0.0000   0.0000   0.0000   0.0000   0.0000   0.0000
     0.0000   0.0000   0.0000   0.0000   0.0000   0.0000   0.0000   0.0000
     0.0000   0.0000   0.0000   0.0000   0.0000   0.0000   0.0000   0.0000
     0.0000   0.0000   0.0000   0.0000   0.0000   0.0000   0.0000   0.0000
     0.0000   0.0000   0.0000   0.0000   0.0000   0.0000   0.0000   0.0000
     0.0000   0.0000   0.0000   0.0000   0.0000   0.0000   0.0000   0.0000
     0.0000   0.0000   0.0000   0.0000   0.0000   0.0000   0.0000   0.0000
     0.0000   0.0000   0.0000   0.0000   0.0000   0.0000   0.0000   0.0000
     0.0000   0.0000   0.0000   0.0000   0.0000   0.0000   0.0000   0.0000

          k =-0.8974-0.5181 0.0844 (  7427 PWs)   bands (ev):

  -102.8550-101.7116 -61.7927 -61.7611 -61.7209 -60.4963 -60.4762 -60.4554
    -7.9006  -7.6575  -7.2803  -7.0073   0.8275   1.0792   1.2723   1.7446
     1.7465   1.9849   2.5105   2.8353   2.9677   3.2012   3.4962   3.5205
     3.7743   3.8284   3.9663   4.0399   4.4821   4.5167   4.6236   5.1683
     5.6536   6.1464   9.0564   9.2881  10.3437  11.0929  11.1642  11.9023
    12.5592  12.5664  12.7527  12.7582  13.3089  13.4357  13.6876  14.1446
    14.8480  14.8608  15.4106  15.5715  16.0526  16.2344  16.7434  17.0727
    18.0668  18.1543  18.4590  18.5530  19.0545  19.6341  20.0609  20.0855
    20.6427  20.8316  20.8350  21.3279  21.5859  21.6804  22.1445  22.4715
    23.3569  23.5674  23.6102  23.9616  24.9687  25.2664  25.5177  25.7748
    25.8507  26.1898  26.3089  26.4521  26.8327  27.5441  27.5467  27.7213
    27.8479  27.9888  28.0039  28.7249  29.1365  29.2291  29.4554  29.8181
    30.0939  31.1216  31.3639  31.6632  31.8388  32.1237  33.0311  33.2512
    33.2829  33.9792  34.2498  34.4689  34.6245  34.7324  34.9923  35.0231
    35.1116  35.3217  35.5104  35.6650  35.8086  36.0992  36.2507  36.4082
    36.8640  37.1584  37.3385  37.5840  37.6103  37.6343  38.1776  38.2802
    38.6432  38.6578  39.1998  39.3888  39.4587  39.8350  40.3974  40.5252
    41.5550  41.8132  41.8624  42.0148  42.0767  42.3579  42.5277  42.6410
    42.7210  43.0629  43.0768  43.4042  43.4601  43.5151  43.8319  43.8388
    43.9270  44.0518  44.1823  44.2496  44.5077  44.5796  44.8354  44.9087
    45.0934  45.2599  45.3889  45.8116  45.8361  46.1634  46.1709  46.6456
    47.1003  47.2470  47.2899  47.5816  47.7235  47.8495  48.0252  48.2753
    48.6583  48.6749  48.9168  49.7678  50.0656  50.1198  50.2637  50.3452
    50.7234  51.0066  51.1484  51.2043  51.4661  51.8221  51.9291  52.1204
    52.1710  52.3210  52.3666  52.4881  52.7371  53.2203  53.2277  53.2969

     occupation numbers 
     1.0000   1.0000   1.0000   1.0000   1.0000   1.0000   1.0000   1.0000
     1.0000   1.0000   1.0000   1.0000   1.0000   1.0000   1.0000   1.0000
     1.0000   1.0000   1.0000   1.0000   1.0000   1.0000   1.0000   1.0000
     1.0000   1.0000   1.0000   1.0000   1.0000   1.0000   1.0000   1.0000
     0.0000   0.0000   0.0000   0.0000   0.0000   0.0000   0.0000   0.0000
     0.0000   0.0000   0.0000   0.0000   0.0000   0.0000   0.0000   0.0000
     0.0000   0.0000   0.0000   0.0000   0.0000   0.0000   0.0000   0.0000
     0.0000   0.0000   0.0000   0.0000   0.0000   0.0000   0.0000   0.0000
     0.0000   0.0000   0.0000   0.0000   0.0000   0.0000   0.0000   0.0000
     0.0000   0.0000   0.0000   0.0000   0.0000   0.0000   0.0000   0.0000
     0.0000   0.0000   0.0000   0.0000   0.0000   0.0000   0.0000   0.0000
     0.0000   0.0000   0.0000   0.0000   0.0000   0.0000   0.0000   0.0000
     0.0000   0.0000   0.0000   0.0000   0.0000   0.0000   0.0000   0.0000
     0.0000   0.0000   0.0000   0.0000   0.0000   0.0000   0.0000   0.0000
     0.0000   0.0000   0.0000   0.0000   0.0000   0.0000   0.0000   0.0000
     0.0000   0.0000   0.0000   0.0000   0.0000   0.0000   0.0000   0.0000
     0.0000   0.0000   0.0000   0.0000   0.0000   0.0000   0.0000   0.0000
     0.0000   0.0000   0.0000   0.0000   0.0000   0.0000   0.0000   0.0000
     0.0000   0.0000   0.0000   0.0000   0.0000   0.0000   0.0000   0.0000
     0.0000   0.0000   0.0000   0.0000   0.0000   0.0000   0.0000   0.0000
     0.0000   0.0000   0.0000   0.0000   0.0000   0.0000   0.0000   0.0000
     0.0000   0.0000   0.0000   0.0000   0.0000   0.0000   0.0000   0.0000
     0.0000   0.0000   0.0000   0.0000   0.0000   0.0000   0.0000   0.0000
     0.0000   0.0000   0.0000   0.0000   0.0000   0.0000   0.0000   0.0000
     0.0000   0.0000   0.0000   0.0000   0.0000   0.0000   0.0000   0.0000

          k =-1.3462-0.7772 0.1266 (  7425 PWs)   bands (ev):

  -102.8551-101.7117 -61.8011 -61.7579 -61.7235 -60.4931 -60.4859 -60.4578
    -7.5366  -7.2894  -7.1609  -6.8923   0.3167   0.5356   1.0122   1.2781
     1.7542   1.8403   2.4080   2.8523   2.8529   2.9245   3.1556   3.2556
     3.3386   3.5885   3.6460   4.0262   4.3325   4.3720   4.7306   5.1145
     5.8538   6.1194   8.2402   8.5250  10.3365  10.5840  10.8006  11.5801
    11.8652  12.0715  12.5774  12.7702  13.4276  14.6592  15.0019  15.4207
    15.8513  16.0926  16.5442  16.8082  16.9008  17.0499  17.0788  17.2818
    18.0962  18.1355  18.5228  18.9737  19.6822  20.2924  21.5116  21.8134
    21.9815  22.1340  22.2310  22.3047  22.8047  23.1192  23.1768  23.2789
    23.6178  23.7796  23.8273  24.0484  24.2547  24.2761  24.3779  24.6596
    24.7815  25.0204  25.1532  25.5884  26.6858  26.7054  26.7993  27.7146
    28.1539  28.3510  28.8661  29.0888  29.4231  29.5474  29.9744  30.2526
    30.2733  30.3932  30.8916  30.9488  31.3160  31.8065  31.9684  32.1224
    32.3108  32.4595  32.5472  32.9734  33.1086  33.3850  33.7871  34.1142
    34.2041  34.3479  34.5231  34.9605  35.1351  35.7401  35.9060  36.0892
    36.7429  36.8155  36.8339  36.9593  37.4942  37.6860  37.7764  37.9020
    38.0314  38.3698  38.6412  39.1184  39.2091  39.9806  39.9893  40.2462
    40.4663  40.5046  40.7976  41.1284  41.2014  41.4362  41.4739  41.5403
    41.9440  41.9740  42.2560  42.4941  42.5436  42.7525  42.8894  42.9299
    43.2028  43.5738  43.9246  44.0491  44.2440  44.5679  44.6449  45.1742
    45.2130  45.2607  45.5679  46.0394  46.2777  46.3791  46.8183  47.5151
    47.6534  47.7767  47.8371  48.0171  48.2910  48.5542  48.8341  49.0077
    49.2887  49.3589  49.7225  49.8450  49.9232  50.0749  50.2177  50.7333
    50.7852  51.0764  51.1120  51.2015  51.4750  51.6088  51.7087  52.3462
    52.5199  52.5478  53.0054  53.0677  53.0948  53.5373  53.6222  54.1665

     occupation numbers 
     1.0000   1.0000   1.0000   1.0000   1.0000   1.0000   1.0000   1.0000
     1.0000   1.0000   1.0000   1.0000   1.0000   1.0000   1.0000   1.0000
     1.0000   1.0000   1.0000   1.0000   1.0000   1.0000   1.0000   1.0000
     1.0000   1.0000   1.0000   1.0000   1.0000   1.0000   1.0000   1.0000
     0.0000   0.0000   0.0000   0.0000   0.0000   0.0000   0.0000   0.0000
     0.0000   0.0000   0.0000   0.0000   0.0000   0.0000   0.0000   0.0000
     0.0000   0.0000   0.0000   0.0000   0.0000   0.0000   0.0000   0.0000
     0.0000   0.0000   0.0000   0.0000   0.0000   0.0000   0.0000   0.0000
     0.0000   0.0000   0.0000   0.0000   0.0000   0.0000   0.0000   0.0000
     0.0000   0.0000   0.0000   0.0000   0.0000   0.0000   0.0000   0.0000
     0.0000   0.0000   0.0000   0.0000   0.0000   0.0000   0.0000   0.0000
     0.0000   0.0000   0.0000   0.0000   0.0000   0.0000   0.0000   0.0000
     0.0000   0.0000   0.0000   0.0000   0.0000   0.0000   0.0000   0.0000
     0.0000   0.0000   0.0000   0.0000   0.0000   0.0000   0.0000   0.0000
     0.0000   0.0000   0.0000   0.0000   0.0000   0.0000   0.0000   0.0000
     0.0000   0.0000   0.0000   0.0000   0.0000   0.0000   0.0000   0.0000
     0.0000   0.0000   0.0000   0.0000   0.0000   0.0000   0.0000   0.0000
     0.0000   0.0000   0.0000   0.0000   0.0000   0.0000   0.0000   0.0000
     0.0000   0.0000   0.0000   0.0000   0.0000   0.0000   0.0000   0.0000
     0.0000   0.0000   0.0000   0.0000   0.0000   0.0000   0.0000   0.0000
     0.0000   0.0000   0.0000   0.0000   0.0000   0.0000   0.0000   0.0000
     0.0000   0.0000   0.0000   0.0000   0.0000   0.0000   0.0000   0.0000
     0.0000   0.0000   0.0000   0.0000   0.0000   0.0000   0.0000   0.0000
     0.0000   0.0000   0.0000   0.0000   0.0000   0.0000   0.0000   0.0000
     0.0000   0.0000   0.0000   0.0000   0.0000   0.0000   0.0000   0.0000

          k = 1.7949 1.0363-0.1689 (  7408 PWs)   bands (ev):

  -102.8541-101.7108 -61.7943 -61.7315 -61.7315 -60.4787 -60.4663 -60.4659
    -7.3216  -7.1581  -7.0707  -6.8907  -0.0436   0.1541   0.9220   1.1110
     1.7561   1.9138   2.6893   2.8450   2.8463   2.9613   2.9622   3.1506
     3.1656   3.4467   3.4587   4.0484   4.2282   4.2998   4.8513   5.1075
     5.9658   6.1244   7.9799   8.2274  10.2254  10.3579  10.9977  11.1035
    11.4931  11.5327  12.5160  12.6640  14.4386  14.4703  15.4346  15.4813
    16.1737  16.1945  16.8680  17.0152  17.8448  17.9556  18.6796  18.7358
    18.7499  18.8934  20.1574  20.2139  20.2903  20.4590  20.6767  20.7833
    20.9540  21.0159  21.2659  21.4756  21.7056  21.7486  22.4813  22.5228
    23.1219  23.1972  23.9467  24.0312  25.5946  25.7941  25.8573  26.0241
    26.3643  26.4544  26.7705  26.9092  26.9656  27.0346  27.5234  27.5458
    28.1641  28.3765  28.8295  28.8354  28.9976  29.0622  29.5827  29.6321
    29.6397  29.6551  29.6855  29.8125  30.0465  30.0664  30.5835  30.6452
    31.4129  31.4888  31.6014  31.6320  33.5189  33.5852  34.7115  34.7455
    35.2012  35.2269  35.5815  35.6193  35.6725  35.7096  35.8145  35.9697
    36.0525  36.1547  37.0102  37.0443  37.5115  37.5902  37.6331  37.6694
    37.8352  37.8865  38.0209  38.0537  38.1582  38.2257  40.0314  40.0631
    40.1958  40.2198  40.6090  40.6404  40.8219  40.9882  41.0363  41.0600
    41.7211  41.8675  42.0716  42.0997  42.4243  42.4308  42.5321  42.6832
    43.1872  43.2502  43.6977  43.7181  44.4507  44.5293  44.7274  44.8429
    44.9168  44.9618  45.4225  45.4252  46.0592  46.0892  46.5813  46.6969
    48.0071  48.0314  48.0988  48.1365  48.6845  48.6848  49.2217  49.3233
    49.4371  49.4426  49.8563  49.9027  50.4917  50.4937  50.5081  50.5624
    51.0040  51.0106  51.1665  51.2518  52.0704  52.1002  52.2172  52.2915
    53.1466  53.1556  53.7802  53.8175  54.4888  54.4958  54.5798  54.6413

     occupation numbers 
     1.0000   1.0000   1.0000   1.0000   1.0000   1.0000   1.0000   1.0000
     1.0000   1.0000   1.0000   1.0000   1.0000   1.0000   1.0000   1.0000
     1.0000   1.0000   1.0000   1.0000   1.0000   1.0000   1.0000   1.0000
     1.0000   1.0000   1.0000   1.0000   1.0000   1.0000   1.0000   1.0000
     0.0000   0.0000   0.0000   0.0000   0.0000   0.0000   0.0000   0.0000
     0.0000   0.0000   0.0000   0.0000   0.0000   0.0000   0.0000   0.0000
     0.0000   0.0000   0.0000   0.0000   0.0000   0.0000   0.0000   0.0000
     0.0000   0.0000   0.0000   0.0000   0.0000   0.0000   0.0000   0.0000
     0.0000   0.0000   0.0000   0.0000   0.0000   0.0000   0.0000   0.0000
     0.0000   0.0000   0.0000   0.0000   0.0000   0.0000   0.0000   0.0000
     0.0000   0.0000   0.0000   0.0000   0.0000   0.0000   0.0000   0.0000
     0.0000   0.0000   0.0000   0.0000   0.0000   0.0000   0.0000   0.0000
     0.0000   0.0000   0.0000   0.0000   0.0000   0.0000   0.0000   0.0000
     0.0000   0.0000   0.0000   0.0000   0.0000   0.0000   0.0000   0.0000
     0.0000   0.0000   0.0000   0.0000   0.0000   0.0000   0.0000   0.0000
     0.0000   0.0000   0.0000   0.0000   0.0000   0.0000   0.0000   0.0000
     0.0000   0.0000   0.0000   0.0000   0.0000   0.0000   0.0000   0.0000
     0.0000   0.0000   0.0000   0.0000   0.0000   0.0000   0.0000   0.0000
     0.0000   0.0000   0.0000   0.0000   0.0000   0.0000   0.0000   0.0000
     0.0000   0.0000   0.0000   0.0000   0.0000   0.0000   0.0000   0.0000
     0.0000   0.0000   0.0000   0.0000   0.0000   0.0000   0.0000   0.0000
     0.0000   0.0000   0.0000   0.0000   0.0000   0.0000   0.0000   0.0000
     0.0000   0.0000   0.0000   0.0000   0.0000   0.0000   0.0000   0.0000
     0.0000   0.0000   0.0000   0.0000   0.0000   0.0000   0.0000   0.0000
     0.0000   0.0000   0.0000   0.0000   0.0000   0.0000   0.0000   0.0000

          k =-0.4487 0.2591 0.0844 (  7451 PWs)   bands (ev):

  -102.8563-101.7128 -61.7880 -61.7598 -61.7584 -60.4951 -60.4936 -60.4707
    -8.1921  -7.9518  -7.4214  -7.1460   0.5587   1.1035   1.5455   1.7099
     2.4145   2.7971   2.8908   3.0956   3.3204   3.4465   3.5102   3.8702
     4.0107   4.1186   4.3045   4.3701   4.5853   4.6684   4.8259   5.2734
     5.8433   6.2241   9.3235   9.9976  10.2723  10.5798  11.0624  11.4152
    11.9741  12.1286  12.2097  12.9352  13.3747  13.4977  13.6583  14.3709
    14.6850  14.7228  15.0012  15.4471  15.6121  16.4747  16.5315  16.8675
    17.1255  17.1832  17.8517  17.8693  17.9914  18.1710  18.7359  19.1995
    19.3818  19.5912  20.1289  20.3769  20.5167  21.0487  21.9287  22.0072
    22.8268  22.9485  23.0112  23.4011  23.4678  24.0308  24.5554  25.4214
    26.1713  26.6455  26.7395  27.0341  27.1878  27.7242  28.1844  28.7093
    28.8902  29.5989  29.7436  29.8860  30.0075  30.1547  31.1225  31.2002
    31.3490  31.5486  31.6466  31.8842  32.7182  33.2197  33.4266  33.4638
    33.7506  33.8019  33.9032  34.5663  34.6001  35.0925  35.1773  35.2280
    35.7840  36.0498  36.3022  36.7027  36.9800  37.3036  37.3292  37.5287
    37.5848  38.0310  38.4917  38.7633  39.0217  39.0932  39.2357  39.4411
    39.6196  39.8391  40.0706  40.1426  40.2572  40.4389  40.5550  40.7374
    40.9098  41.0301  41.1908  41.6167  41.6444  41.8056  41.9488  41.9737
    42.6609  42.7604  42.7936  42.9041  42.9211  43.0124  43.5071  43.9915
    44.1923  44.4059  44.6656  44.7167  44.9296  44.9403  45.0036  45.7890
    45.9071  46.0980  46.2147  46.3824  46.4724  46.5318  46.8603  46.9307
    47.3532  47.5557  47.6197  47.6558  47.8446  47.9141  48.0272  48.5874
    48.6554  48.6720  49.0666  49.5303  49.5780  49.9284  50.0327  50.1032
    50.2395  50.3092  50.4509  50.5641  50.8001  51.1609  51.1928  51.5641
    51.6988  51.9092  51.9383  52.1945  52.2861  52.6394  52.7438  52.7840

     occupation numbers 
     1.0000   1.0000   1.0000   1.0000   1.0000   1.0000   1.0000   1.0000
     1.0000   1.0000   1.0000   1.0000   1.0000   1.0000   1.0000   1.0000
     1.0000   1.0000   1.0000   1.0000   1.0000   1.0000   1.0000   1.0000
     1.0000   1.0000   1.0000   1.0000   1.0000   1.0000   1.0000   1.0000
     0.0000   0.0000   0.0000   0.0000   0.0000   0.0000   0.0000   0.0000
     0.0000   0.0000   0.0000   0.0000   0.0000   0.0000   0.0000   0.0000
     0.0000   0.0000   0.0000   0.0000   0.0000   0.0000   0.0000   0.0000
     0.0000   0.0000   0.0000   0.0000   0.0000   0.0000   0.0000   0.0000
     0.0000   0.0000   0.0000   0.0000   0.0000   0.0000   0.0000   0.0000
     0.0000   0.0000   0.0000   0.0000   0.0000   0.0000   0.0000   0.0000
     0.0000   0.0000   0.0000   0.0000   0.0000   0.0000   0.0000   0.0000
     0.0000   0.0000   0.0000   0.0000   0.0000   0.0000   0.0000   0.0000
     0.0000   0.0000   0.0000   0.0000   0.0000   0.0000   0.0000   0.0000
     0.0000   0.0000   0.0000   0.0000   0.0000   0.0000   0.0000   0.0000
     0.0000   0.0000   0.0000   0.0000   0.0000   0.0000   0.0000   0.0000
     0.0000   0.0000   0.0000   0.0000   0.0000   0.0000   0.0000   0.0000
     0.0000   0.0000   0.0000   0.0000   0.0000   0.0000   0.0000   0.0000
     0.0000   0.0000   0.0000   0.0000   0.0000   0.0000   0.0000   0.0000
     0.0000   0.0000   0.0000   0.0000   0.0000   0.0000   0.0000   0.0000
     0.0000   0.0000   0.0000   0.0000   0.0000   0.0000   0.0000   0.0000
     0.0000   0.0000   0.0000   0.0000   0.0000   0.0000   0.0000   0.0000
     0.0000   0.0000   0.0000   0.0000   0.0000   0.0000   0.0000   0.0000
     0.0000   0.0000   0.0000   0.0000   0.0000   0.0000   0.0000   0.0000
     0.0000   0.0000   0.0000   0.0000   0.0000   0.0000   0.0000   0.0000
     0.0000   0.0000   0.0000   0.0000   0.0000   0.0000   0.0000   0.0000

          k =-0.8974 0.0000 0.1266 (  7441 PWs)   bands (ev):

  -102.8557-101.7124 -61.7969 -61.7624 -61.7366 -60.4979 -60.4808 -60.4712
    -7.9916  -7.7504  -7.3199  -7.0476   0.7800   1.1551   1.3485   1.6983
     2.0041   2.3987   2.6681   2.7242   2.7842   3.3042   3.4690   3.6747
     3.8040   3.8748   4.0878   4.1635   4.5543   4.5660   4.7802   4.8798
     5.7819   5.9180   9.6565   9.8889  10.6626  10.9988  11.1704  11.4380
    12.2592  12.3565  12.5490  12.7580  12.9057  13.6803  13.7404  13.9062
    14.3625  14.6935  15.0124  15.6521  15.7906  16.2586  16.9668  17.5763
    17.8617  18.1907  18.3414  18.7505  18.8524  19.0210  19.6519  19.7465
    19.8457  20.0598  20.4486  20.7854  21.2167  22.0024  22.1108  22.2635
    22.9177  22.9407  23.5162  24.3358  24.4039  24.6549  25.1436  25.2439
    26.3206  26.4167  26.6946  26.9214  27.4352  27.5613  27.8221  28.0639
    28.2587  28.6053  28.8638  29.3704  29.5451  30.2383  30.3648  30.4208
    30.6324  30.8702  31.1079  31.4687  31.7989  32.0809  32.1278  32.3342
    32.9868  33.1780  33.2503  33.5023  33.7341  34.4305  35.0575  35.2250
    35.2906  35.9609  36.1702  36.2611  36.9635  37.0995  37.3953  37.6032
    37.6388  37.7841  38.0678  38.5128  38.5903  38.7587  38.8444  39.0693
    39.1631  39.3274  39.4577  39.9578  40.0337  40.1440  40.3279  40.4039
    40.6948  40.8462  40.9168  41.1185  41.4590  41.5420  41.5954  41.7608
    41.8925  42.0573  42.2708  42.4347  42.5654  43.0867  43.2381  43.5496
    43.8726  43.9566  44.5827  45.3092  45.6061  45.6547  45.7355  45.7967
    45.9987  46.1336  46.4436  46.4990  46.8286  46.8563  47.0750  47.3734
    47.5448  47.7897  47.8158  47.8635  47.9439  48.2632  48.3772  48.3909
    48.4475  48.6978  48.8793  49.0837  49.2852  49.4412  49.8406  49.9793
    50.0816  50.2745  50.3619  50.6395  50.8472  50.9367  51.1274  51.3747
    51.6136  51.9046  51.9689  52.1596  52.2278  52.4531  52.6845  53.0293

     occupation numbers 
     1.0000   1.0000   1.0000   1.0000   1.0000   1.0000   1.0000   1.0000
     1.0000   1.0000   1.0000   1.0000   1.0000   1.0000   1.0000   1.0000
     1.0000   1.0000   1.0000   1.0000   1.0000   1.0000   1.0000   1.0000
     1.0000   1.0000   1.0000   1.0000   1.0000   1.0000   1.0000   1.0000
     0.0000   0.0000   0.0000   0.0000   0.0000   0.0000   0.0000   0.0000
     0.0000   0.0000   0.0000   0.0000   0.0000   0.0000   0.0000   0.0000
     0.0000   0.0000   0.0000   0.0000   0.0000   0.0000   0.0000   0.0000
     0.0000   0.0000   0.0000   0.0000   0.0000   0.0000   0.0000   0.0000
     0.0000   0.0000   0.0000   0.0000   0.0000   0.0000   0.0000   0.0000
     0.0000   0.0000   0.0000   0.0000   0.0000   0.0000   0.0000   0.0000
     0.0000   0.0000   0.0000   0.0000   0.0000   0.0000   0.0000   0.0000
     0.0000   0.0000   0.0000   0.0000   0.0000   0.0000   0.0000   0.0000
     0.0000   0.0000   0.0000   0.0000   0.0000   0.0000   0.0000   0.0000
     0.0000   0.0000   0.0000   0.0000   0.0000   0.0000   0.0000   0.0000
     0.0000   0.0000   0.0000   0.0000   0.0000   0.0000   0.0000   0.0000
     0.0000   0.0000   0.0000   0.0000   0.0000   0.0000   0.0000   0.0000
     0.0000   0.0000   0.0000   0.0000   0.0000   0.0000   0.0000   0.0000
     0.0000   0.0000   0.0000   0.0000   0.0000   0.0000   0.0000   0.0000
     0.0000   0.0000   0.0000   0.0000   0.0000   0.0000   0.0000   0.0000
     0.0000   0.0000   0.0000   0.0000   0.0000   0.0000   0.0000   0.0000
     0.0000   0.0000   0.0000   0.0000   0.0000   0.0000   0.0000   0.0000
     0.0000   0.0000   0.0000   0.0000   0.0000   0.0000   0.0000   0.0000
     0.0000   0.0000   0.0000   0.0000   0.0000   0.0000   0.0000   0.0000
     0.0000   0.0000   0.0000   0.0000   0.0000   0.0000   0.0000   0.0000
     0.0000   0.0000   0.0000   0.0000   0.0000   0.0000   0.0000   0.0000

          k =-1.3462-0.2591 0.1689 (  7408 PWs)   bands (ev):

  -102.8540-101.7106 -61.7920 -61.7429 -61.7123 -60.4783 -60.4760 -60.4463
    -7.6602  -7.4158  -7.1848  -6.9162   0.7025   0.9047   1.1284   1.4480
     1.6993   1.8800   2.2860   2.4234   2.6693   3.0710   3.1398   3.3423
     3.5777   3.6679   3.8735   4.1067   4.4243   4.4639   4.6288   4.8686
     5.7118   5.9897   9.0085   9.2963  10.6969  10.8849  11.5827  11.8064
    11.9701  12.3460  12.7975  12.8959  13.1069  13.4799  13.7073  14.4555
    14.7833  15.1456  15.2937  16.2357  16.9720  17.2633  17.5606  18.2022
    18.3603  18.7562  18.8403  19.0323  19.5140  20.1629  20.2821  20.9011
    21.1020  21.4163  21.5687  22.0853  22.4186  22.6089  22.8193  23.1793
    23.2427  23.4884  23.9785  24.1279  24.5051  24.6811  24.7351  24.8135
    25.2035  25.8425  26.5840  26.8548  26.8618  27.0090  27.4224  27.6839
    28.0499  28.3795  28.6049  28.9458  29.2837  29.3292  29.9493  30.1863
    30.5625  30.7130  31.1458  31.2277  31.5638  31.7000  31.9622  32.1395
    32.4420  32.7756  32.8353  33.1894  33.2678  33.5879  34.0237  34.2220
    34.3633  34.4286  34.7295  34.7933  35.3225  35.4095  35.8978  36.3887
    36.4490  36.5677  36.8485  37.4659  37.6609  37.7129  38.0004  38.1967
    38.5038  38.5989  38.9028  39.0978  39.1851  39.5484  39.6374  39.9508
    40.1015  40.2112  40.6620  40.7858  40.9960  41.1128  41.5129  41.6809
    41.9662  42.1409  42.3396  43.0900  43.3271  43.3668  43.6076  43.6659
    44.0558  44.3141  44.4857  44.9463  44.9962  45.1840  45.2553  45.7369
    45.8033  45.8513  46.3124  46.5387  46.6408  46.6840  46.8003  46.8681
    47.1253  47.4781  47.8133  47.9581  48.0288  48.3780  48.7375  48.7861
    49.0536  49.1886  49.5239  49.6742  49.9694  50.1824  50.3847  50.4283
    50.7777  50.8950  51.1441  51.3647  51.4103  51.6083  51.6741  52.0172
    52.2032  52.2310  52.6231  52.6722  52.9114  53.2877  53.4783  53.5350

     occupation numbers 
     1.0000   1.0000   1.0000   1.0000   1.0000   1.0000   1.0000   1.0000
     1.0000   1.0000   1.0000   1.0000   1.0000   1.0000   1.0000   1.0000
     1.0000   1.0000   1.0000   1.0000   1.0000   1.0000   1.0000   1.0000
     1.0000   1.0000   1.0000   1.0000   1.0000   1.0000   1.0000   1.0000
     0.0000   0.0000   0.0000   0.0000   0.0000   0.0000   0.0000   0.0000
     0.0000   0.0000   0.0000   0.0000   0.0000   0.0000   0.0000   0.0000
     0.0000   0.0000   0.0000   0.0000   0.0000   0.0000   0.0000   0.0000
     0.0000   0.0000   0.0000   0.0000   0.0000   0.0000   0.0000   0.0000
     0.0000   0.0000   0.0000   0.0000   0.0000   0.0000   0.0000   0.0000
     0.0000   0.0000   0.0000   0.0000   0.0000   0.0000   0.0000   0.0000
     0.0000   0.0000   0.0000   0.0000   0.0000   0.0000   0.0000   0.0000
     0.0000   0.0000   0.0000   0.0000   0.0000   0.0000   0.0000   0.0000
     0.0000   0.0000   0.0000   0.0000   0.0000   0.0000   0.0000   0.0000
     0.0000   0.0000   0.0000   0.0000   0.0000   0.0000   0.0000   0.0000
     0.0000   0.0000   0.0000   0.0000   0.0000   0.0000   0.0000   0.0000
     0.0000   0.0000   0.0000   0.0000   0.0000   0.0000   0.0000   0.0000
     0.0000   0.0000   0.0000   0.0000   0.0000   0.0000   0.0000   0.0000
     0.0000   0.0000   0.0000   0.0000   0.0000   0.0000   0.0000   0.0000
     0.0000   0.0000   0.0000   0.0000   0.0000   0.0000   0.0000   0.0000
     0.0000   0.0000   0.0000   0.0000   0.0000   0.0000   0.0000   0.0000
     0.0000   0.0000   0.0000   0.0000   0.0000   0.0000   0.0000   0.0000
     0.0000   0.0000   0.0000   0.0000   0.0000   0.0000   0.0000   0.0000
     0.0000   0.0000   0.0000   0.0000   0.0000   0.0000   0.0000   0.0000
     0.0000   0.0000   0.0000   0.0000   0.0000   0.0000   0.0000   0.0000
     0.0000   0.0000   0.0000   0.0000   0.0000   0.0000   0.0000   0.0000

          k = 1.7949 1.5544-0.1266 (  7414 PWs)   bands (ev):

  -102.8544-101.7111 -61.7912 -61.7408 -61.7334 -60.4770 -60.4743 -60.4677
    -7.3501  -7.1311  -7.1000  -6.8654   0.1522   0.3513   0.9864   1.2163
     1.7371   1.9363   2.2559   2.4169   2.6815   2.7712   2.8094   3.1484
     3.3742   3.4319   3.6371   4.1676   4.2496   4.3634   4.7012   4.8571
     5.7992   5.9997   8.4974   8.7395  10.7957  10.8547  11.1765  11.5080
    11.6165  11.6658  12.3271  12.9081  14.1169  14.2841  14.7357  14.8822
    15.4979  16.1618  16.4227  16.6837  17.1201  17.3632  17.9575  18.5032
    19.3404  19.4302  19.6237  19.6847  20.2865  20.3642  20.4290  20.9111
    21.0484  21.4941  21.5279  22.0044  22.3592  22.8470  22.8994  23.1554
    23.8530  24.0620  24.3479  24.7631  24.9414  25.2990  25.3642  25.4225
    25.6495  26.2168  26.3571  26.4387  26.6178  27.0250  27.5593  27.8447
    28.1050  28.1673  28.3251  28.9203  28.9822  29.8075  29.9291  30.1932
    30.2424  30.2977  30.4051  30.6578  30.7391  30.9529  31.1434  31.5005
    31.6680  31.8648  32.1612  32.4686  32.5749  32.7469  33.1614  33.3239
    33.6195  34.0180  34.5693  34.6379  34.7878  34.8324  35.6773  35.8360
    35.9516  36.2597  36.8027  36.8566  37.1116  37.2460  37.5074  37.7554
    37.9173  37.9863  38.1800  38.4714  38.8873  39.1905  39.2101  39.2481
    39.5431  39.7820  39.8316  39.8673  40.5601  40.8006  40.8957  41.2856
    41.3647  41.6489  41.8168  42.6201  42.7077  42.9217  43.0974  43.3194
    43.6850  43.9426  44.3938  44.6150  44.7839  44.8633  45.5029  45.5214
    45.7953  45.8661  46.2541  46.3516  46.7044  46.8448  46.9798  47.2265
    47.5048  47.7247  47.8905  47.9627  48.0657  48.6775  48.7387  48.8612
    49.2631  49.6194  49.7290  50.1251  50.4285  50.5421  50.6970  51.0100
    51.0638  51.3438  51.5223  51.6804  52.0240  52.1965  52.4954  53.0404
    53.0911  53.2704  53.6223  53.9962  54.0568  54.1393  54.4061  54.4280

     occupation numbers 
     1.0000   1.0000   1.0000   1.0000   1.0000   1.0000   1.0000   1.0000
     1.0000   1.0000   1.0000   1.0000   1.0000   1.0000   1.0000   1.0000
     1.0000   1.0000   1.0000   1.0000   1.0000   1.0000   1.0000   1.0000
     1.0000   1.0000   1.0000   1.0000   1.0000   1.0000   1.0000   1.0000
     0.0000   0.0000   0.0000   0.0000   0.0000   0.0000   0.0000   0.0000
     0.0000   0.0000   0.0000   0.0000   0.0000   0.0000   0.0000   0.0000
     0.0000   0.0000   0.0000   0.0000   0.0000   0.0000   0.0000   0.0000
     0.0000   0.0000   0.0000   0.0000   0.0000   0.0000   0.0000   0.0000
     0.0000   0.0000   0.0000   0.0000   0.0000   0.0000   0.0000   0.0000
     0.0000   0.0000   0.0000   0.0000   0.0000   0.0000   0.0000   0.0000
     0.0000   0.0000   0.0000   0.0000   0.0000   0.0000   0.0000   0.0000
     0.0000   0.0000   0.0000   0.0000   0.0000   0.0000   0.0000   0.0000
     0.0000   0.0000   0.0000   0.0000   0.0000   0.0000   0.0000   0.0000
     0.0000   0.0000   0.0000   0.0000   0.0000   0.0000   0.0000   0.0000
     0.0000   0.0000   0.0000   0.0000   0.0000   0.0000   0.0000   0.0000
     0.0000   0.0000   0.0000   0.0000   0.0000   0.0000   0.0000   0.0000
     0.0000   0.0000   0.0000   0.0000   0.0000   0.0000   0.0000   0.0000
     0.0000   0.0000   0.0000   0.0000   0.0000   0.0000   0.0000   0.0000
     0.0000   0.0000   0.0000   0.0000   0.0000   0.0000   0.0000   0.0000
     0.0000   0.0000   0.0000   0.0000   0.0000   0.0000   0.0000   0.0000
     0.0000   0.0000   0.0000   0.0000   0.0000   0.0000   0.0000   0.0000
     0.0000   0.0000   0.0000   0.0000   0.0000   0.0000   0.0000   0.0000
     0.0000   0.0000   0.0000   0.0000   0.0000   0.0000   0.0000   0.0000
     0.0000   0.0000   0.0000   0.0000   0.0000   0.0000   0.0000   0.0000
     0.0000   0.0000   0.0000   0.0000   0.0000   0.0000   0.0000   0.0000

          k = 1.3462 1.2954-0.0844 (  7416 PWs)   bands (ev):

  -102.8545-101.7112 -61.7956 -61.7400 -61.7330 -60.4814 -60.4748 -60.4660
    -7.3501  -7.1328  -7.0983  -6.8656   0.1483   0.3571   0.9841   1.2230
     1.7395   1.9161   2.2513   2.4158   2.6604   2.7674   2.8332   3.1508
     3.3684   3.4410   3.6427   4.1667   4.2532   4.3710   4.6943   4.8579
     5.8096   5.9728   8.4358   8.7941  10.6806  11.0009  11.1829  11.4722
    11.5263  11.8117  12.5057  12.7326  13.8176  14.4964  14.5999  15.0347
    15.3482  16.2610  16.4011  16.5882  17.3986  17.5641  18.1082  18.3908
    19.1528  19.2475  19.5120  19.6587  19.9557  20.5356  20.7806  20.9513
    21.0537  21.3896  21.6323  21.9012  22.0331  22.8137  22.9691  23.4314
    23.8505  24.0061  24.7007  24.8534  24.9262  25.1959  25.3245  25.4305
    25.5852  26.1976  26.3779  26.6578  26.7393  27.2082  27.3608  27.5977
    27.7624  28.2882  28.5372  28.6153  28.7210  29.3924  29.9443  30.0107
    30.2306  30.3185  30.4556  30.6268  31.1515  31.3090  31.3267  31.6479
    31.7351  32.1458  32.2815  32.5665  32.6920  32.7303  33.1768  33.2292
    33.4912  34.0037  34.1195  34.1858  34.5671  35.1198  35.1530  35.7861
    36.3695  36.4474  36.7083  37.0258  37.2142  37.2730  37.5566  37.6612
    37.7223  37.9023  38.4299  38.5088  39.0506  39.1550  39.3517  39.4519
    39.8178  39.9318  40.0150  40.0559  40.1361  40.6226  40.6459  40.8312
    41.2714  41.4833  41.6498  42.2507  42.6509  42.8196  43.0389  43.7711
    43.8498  44.3466  44.5411  44.8337  44.9536  45.2119  45.2775  45.4535
    45.5070  45.9244  46.1091  46.1648  46.5533  46.8067  46.9735  47.3858
    47.4233  47.5384  48.3626  48.3788  48.4253  48.7216  48.7784  48.8944
    49.0591  49.3403  49.7023  49.8693  50.3454  50.3679  50.4010  50.6707
    51.1236  51.2855  51.5364  51.7684  52.0963  52.1886  52.6589  52.8831
    53.0518  53.5048  53.5790  53.7538  53.8948  54.0408  54.4310  54.6235

     occupation numbers 
     1.0000   1.0000   1.0000   1.0000   1.0000   1.0000   1.0000   1.0000
     1.0000   1.0000   1.0000   1.0000   1.0000   1.0000   1.0000   1.0000
     1.0000   1.0000   1.0000   1.0000   1.0000   1.0000   1.0000   1.0000
     1.0000   1.0000   1.0000   1.0000   1.0000   1.0000   1.0000   1.0000
     0.0000   0.0000   0.0000   0.0000   0.0000   0.0000   0.0000   0.0000
     0.0000   0.0000   0.0000   0.0000   0.0000   0.0000   0.0000   0.0000
     0.0000   0.0000   0.0000   0.0000   0.0000   0.0000   0.0000   0.0000
     0.0000   0.0000   0.0000   0.0000   0.0000   0.0000   0.0000   0.0000
     0.0000   0.0000   0.0000   0.0000   0.0000   0.0000   0.0000   0.0000
     0.0000   0.0000   0.0000   0.0000   0.0000   0.0000   0.0000   0.0000
     0.0000   0.0000   0.0000   0.0000   0.0000   0.0000   0.0000   0.0000
     0.0000   0.0000   0.0000   0.0000   0.0000   0.0000   0.0000   0.0000
     0.0000   0.0000   0.0000   0.0000   0.0000   0.0000   0.0000   0.0000
     0.0000   0.0000   0.0000   0.0000   0.0000   0.0000   0.0000   0.0000
     0.0000   0.0000   0.0000   0.0000   0.0000   0.0000   0.0000   0.0000
     0.0000   0.0000   0.0000   0.0000   0.0000   0.0000   0.0000   0.0000
     0.0000   0.0000   0.0000   0.0000   0.0000   0.0000   0.0000   0.0000
     0.0000   0.0000   0.0000   0.0000   0.0000   0.0000   0.0000   0.0000
     0.0000   0.0000   0.0000   0.0000   0.0000   0.0000   0.0000   0.0000
     0.0000   0.0000   0.0000   0.0000   0.0000   0.0000   0.0000   0.0000
     0.0000   0.0000   0.0000   0.0000   0.0000   0.0000   0.0000   0.0000
     0.0000   0.0000   0.0000   0.0000   0.0000   0.0000   0.0000   0.0000
     0.0000   0.0000   0.0000   0.0000   0.0000   0.0000   0.0000   0.0000
     0.0000   0.0000   0.0000   0.0000   0.0000   0.0000   0.0000   0.0000
     0.0000   0.0000   0.0000   0.0000   0.0000   0.0000   0.0000   0.0000

          k = 0.8974 1.0363-0.0422 (  7405 PWs)   bands (ev):

  -102.8538-101.7105 -61.7930 -61.7375 -61.7114 -60.4774 -60.4722 -60.4455
    -7.6605  -7.4145  -7.1861  -6.9155   0.7031   0.9097   1.1182   1.4731
     1.6846   1.8516   2.2996   2.4364   2.6714   3.0613   3.1478   3.3514
     3.5832   3.6637   3.8761   4.1156   4.4262   4.4747   4.6226   4.8694
     5.7091   5.9877   8.9688   9.3329  10.6250  11.0373  11.5695  11.7730
    11.9678  12.4034  12.7917  12.8233  12.9698  13.6093  13.7419  14.5358
    14.6866  14.9732  15.3455  16.1430  17.3130  17.3709  17.7006  18.0164
    18.3113  18.6862  18.8075  19.0160  19.4478  20.1713  20.2777  20.9360
    21.0467  21.3699  21.5748  22.2079  22.2683  22.7331  22.7666  22.8880
    23.2549  23.6419  23.9195  24.3624  24.4566  24.6932  24.8002  25.0800
    25.4177  25.6124  26.4885  26.5907  26.7334  27.1082  27.4615  27.5188
    28.1259  28.4439  28.6939  29.0970  29.3643  29.4848  29.7961  30.0116
    30.5658  30.7856  31.0684  31.4132  31.5385  31.7888  31.8625  32.0222
    32.1802  32.2397  32.6351  33.1040  33.5165  33.6200  33.9884  34.2807
    34.6762  34.7755  34.9592  35.0627  35.2322  35.4917  36.0368  36.4120
    36.5024  36.9177  36.9551  37.2743  37.3307  37.9004  37.9860  38.0068
    38.3515  38.4784  38.8181  38.8963  39.0378  39.1533  39.3872  39.7799
    40.2100  40.4138  40.5221  40.8241  40.9585  41.0304  41.7834  41.8528
    42.1538  42.4122  42.4966  42.6524  43.1273  43.4059  43.4599  43.9851
    44.2400  44.4548  44.6397  44.8836  44.9937  45.3378  45.4216  45.5936
    45.7368  45.8821  46.2889  46.7159  46.7508  46.8341  46.9366  47.0050
    47.1247  47.2471  47.7711  47.8196  48.1021  48.1483  48.4953  48.5842
    48.8626  49.3365  49.6272  49.6712  49.8253  50.1279  50.1814  50.5172
    50.6213  50.7729  51.1436  51.1601  51.4886  51.6938  51.7332  52.0913
    52.1302  52.3973  52.5086  52.5267  52.5978  53.3907  53.5866  53.8601

     occupation numbers 
     1.0000   1.0000   1.0000   1.0000   1.0000   1.0000   1.0000   1.0000
     1.0000   1.0000   1.0000   1.0000   1.0000   1.0000   1.0000   1.0000
     1.0000   1.0000   1.0000   1.0000   1.0000   1.0000   1.0000   1.0000
     1.0000   1.0000   1.0000   1.0000   1.0000   1.0000   1.0000   1.0000
     0.0000   0.0000   0.0000   0.0000   0.0000   0.0000   0.0000   0.0000
     0.0000   0.0000   0.0000   0.0000   0.0000   0.0000   0.0000   0.0000
     0.0000   0.0000   0.0000   0.0000   0.0000   0.0000   0.0000   0.0000
     0.0000   0.0000   0.0000   0.0000   0.0000   0.0000   0.0000   0.0000
     0.0000   0.0000   0.0000   0.0000   0.0000   0.0000   0.0000   0.0000
     0.0000   0.0000   0.0000   0.0000   0.0000   0.0000   0.0000   0.0000
     0.0000   0.0000   0.0000   0.0000   0.0000   0.0000   0.0000   0.0000
     0.0000   0.0000   0.0000   0.0000   0.0000   0.0000   0.0000   0.0000
     0.0000   0.0000   0.0000   0.0000   0.0000   0.0000   0.0000   0.0000
     0.0000   0.0000   0.0000   0.0000   0.0000   0.0000   0.0000   0.0000
     0.0000   0.0000   0.0000   0.0000   0.0000   0.0000   0.0000   0.0000
     0.0000   0.0000   0.0000   0.0000   0.0000   0.0000   0.0000   0.0000
     0.0000   0.0000   0.0000   0.0000   0.0000   0.0000   0.0000   0.0000
     0.0000   0.0000   0.0000   0.0000   0.0000   0.0000   0.0000   0.0000
     0.0000   0.0000   0.0000   0.0000   0.0000   0.0000   0.0000   0.0000
     0.0000   0.0000   0.0000   0.0000   0.0000   0.0000   0.0000   0.0000
     0.0000   0.0000   0.0000   0.0000   0.0000   0.0000   0.0000   0.0000
     0.0000   0.0000   0.0000   0.0000   0.0000   0.0000   0.0000   0.0000
     0.0000   0.0000   0.0000   0.0000   0.0000   0.0000   0.0000   0.0000
     0.0000   0.0000   0.0000   0.0000   0.0000   0.0000   0.0000   0.0000
     0.0000   0.0000   0.0000   0.0000   0.0000   0.0000   0.0000   0.0000

          k = 0.4487 0.7772 0.0000 (  7435 PWs)   bands (ev):

  -102.8554-101.7120 -61.7898 -61.7538 -61.7414 -60.4889 -60.4761 -60.4739
    -7.9920  -7.7491  -7.3215  -7.0466   0.7720   1.1779   1.3356   1.7087
     2.0038   2.4032   2.6625   2.7300   2.7917   3.3118   3.4630   3.6658
     3.8239   3.8649   4.0936   4.1662   4.5661   4.5674   4.7823   4.8842
     5.7845   5.9274   9.6556   9.8882  10.6467  11.0094  11.1659  11.4507
    12.2552  12.3418  12.5685  12.7820  12.8725  13.6650  13.7379  13.9371
    14.4290  14.5843  15.1098  15.5653  15.7814  16.2563  16.9393  17.8203
    17.8971  18.1661  18.2148  18.7415  18.9084  18.9360  19.5194  19.7474
    19.9742  20.0266  20.2020  21.1953  21.3351  21.8741  21.9144  22.0899
    22.9662  23.1427  24.0801  24.1279  24.2617  24.3395  24.9236  25.4958
    26.0570  26.4027  26.5984  27.3713  27.6576  27.8062  28.0736  28.0811
    28.1996  28.2947  28.3636  29.6469  29.7359  29.9375  30.0458  30.4056
    30.7397  31.0705  31.1956  31.3132  31.7487  31.9635  32.0690  32.3376
    33.1174  33.1188  33.4174  33.5156  33.9392  34.2382  34.8066  34.9414
    35.9107  36.0625  36.7445  36.8729  36.9385  36.9775  36.9890  37.1730
    37.3392  37.3772  37.8812  38.5426  38.5716  38.7686  38.9752  39.1130
    39.4317  39.4532  39.6240  39.8367  39.9864  40.1231  40.1602  40.3059
    40.6392  40.8960  40.9665  41.4753  41.4870  41.4880  41.7151  41.8137
    41.8629  42.0765  42.0876  42.3245  42.6072  42.6240  42.9782  43.9355
    44.0177  44.1261  44.6942  45.2290  45.6240  45.7061  45.7897  45.8222
    45.9895  46.3095  46.3311  46.6903  46.7488  46.8484  47.0288  47.3426
    47.4324  47.7713  47.8269  47.9489  48.0669  48.0817  48.2570  48.2766
    48.4216  48.6343  48.9116  48.9958  49.0795  49.5673  49.8147  49.8982
    50.0226  50.3361  50.5137  50.6476  50.6548  51.0195  51.2520  51.4041
    51.6866  52.1196  52.2085  52.2374  52.5775  52.5940  52.7971  52.8277

     occupation numbers 
     1.0000   1.0000   1.0000   1.0000   1.0000   1.0000   1.0000   1.0000
     1.0000   1.0000   1.0000   1.0000   1.0000   1.0000   1.0000   1.0000
     1.0000   1.0000   1.0000   1.0000   1.0000   1.0000   1.0000   1.0000
     1.0000   1.0000   1.0000   1.0000   1.0000   1.0000   1.0000   1.0000
     0.0000   0.0000   0.0000   0.0000   0.0000   0.0000   0.0000   0.0000
     0.0000   0.0000   0.0000   0.0000   0.0000   0.0000   0.0000   0.0000
     0.0000   0.0000   0.0000   0.0000   0.0000   0.0000   0.0000   0.0000
     0.0000   0.0000   0.0000   0.0000   0.0000   0.0000   0.0000   0.0000
     0.0000   0.0000   0.0000   0.0000   0.0000   0.0000   0.0000   0.0000
     0.0000   0.0000   0.0000   0.0000   0.0000   0.0000   0.0000   0.0000
     0.0000   0.0000   0.0000   0.0000   0.0000   0.0000   0.0000   0.0000
     0.0000   0.0000   0.0000   0.0000   0.0000   0.0000   0.0000   0.0000
     0.0000   0.0000   0.0000   0.0000   0.0000   0.0000   0.0000   0.0000
     0.0000   0.0000   0.0000   0.0000   0.0000   0.0000   0.0000   0.0000
     0.0000   0.0000   0.0000   0.0000   0.0000   0.0000   0.0000   0.0000
     0.0000   0.0000   0.0000   0.0000   0.0000   0.0000   0.0000   0.0000
     0.0000   0.0000   0.0000   0.0000   0.0000   0.0000   0.0000   0.0000
     0.0000   0.0000   0.0000   0.0000   0.0000   0.0000   0.0000   0.0000
     0.0000   0.0000   0.0000   0.0000   0.0000   0.0000   0.0000   0.0000
     0.0000   0.0000   0.0000   0.0000   0.0000   0.0000   0.0000   0.0000
     0.0000   0.0000   0.0000   0.0000   0.0000   0.0000   0.0000   0.0000
     0.0000   0.0000   0.0000   0.0000   0.0000   0.0000   0.0000   0.0000
     0.0000   0.0000   0.0000   0.0000   0.0000   0.0000   0.0000   0.0000
     0.0000   0.0000   0.0000   0.0000   0.0000   0.0000   0.0000   0.0000
     0.0000   0.0000   0.0000   0.0000   0.0000   0.0000   0.0000   0.0000

          k =-0.8974 0.5181 0.1689 (  7437 PWs)   bands (ev):

  -102.8556-101.7122 -61.7964 -61.7643 -61.7324 -60.4998 -60.4810 -60.4662
    -7.9001  -7.6595  -7.2780  -7.0088   0.8318   1.1019   1.2364   1.7385
     1.7564   1.9575   2.5212   2.8288   2.9692   3.1919   3.4853   3.5219
     3.7131   3.8909   3.9591   4.0852   4.3806   4.5117   4.6574   5.1642
     5.6142   6.1461   9.0331   9.3252  10.5937  10.7324  11.3431  12.0935
    12.2083  12.5240  12.5809  12.7928  13.2856  13.4478  13.9354  14.0484
    14.9380  14.9649  15.2093  15.9401  16.1442  16.6726  16.9518  17.1298
    17.2504  17.5016  17.6077  18.9951  19.2268  19.6282  19.9798  20.7780
    20.7851  21.2680  21.3070  21.4095  21.6915  21.8676  22.3428  22.4887
    22.6153  22.8586  23.2833  23.5609  24.0756  24.8432  25.5987  26.0795
    26.3568  26.3786  26.7886  27.0197  27.1045  27.5453  27.8804  27.9793
    28.0965  28.2572  28.3497  28.4142  28.8771  29.2480  29.4157  29.6402
    29.9694  30.2975  30.4407  30.8634  31.4514  32.8336  32.8661  33.3269
    33.4339  33.7286  34.0484  34.2082  34.6334  35.1812  35.5290  35.6904
    35.7799  35.8659  35.9513  36.2435  36.3782  36.4670  36.5146  36.6870
    36.8880  36.9833  37.1020  37.2615  37.2803  37.5525  37.7434  37.8622
    38.0957  38.3443  38.6401  38.7697  39.2109  39.3952  39.6670  40.3167
    40.4118  41.7045  41.9880  42.3226  42.3969  42.5604  42.6929  42.8808
    43.2595  43.4131  43.5021  43.6026  43.6384  43.9882  43.9919  44.1263
    44.1765  44.4215  44.5347  44.6738  44.7177  44.7206  45.1297  45.1661
    45.2182  45.4868  45.6159  45.8708  45.8968  46.0284  46.2478  46.3028
    46.5756  46.7127  46.8310  46.8980  46.9632  47.4289  47.7450  48.0039
    48.0530  48.8604  49.1061  49.4829  49.7802  50.0783  50.1879  50.4124
    50.5106  50.7933  51.1216  51.2919  51.3123  51.5972  51.8031  51.8386
    52.5379  52.8296  52.8796  52.9770  53.0291  53.2074  53.3745  53.4205

     occupation numbers 
     1.0000   1.0000   1.0000   1.0000   1.0000   1.0000   1.0000   1.0000
     1.0000   1.0000   1.0000   1.0000   1.0000   1.0000   1.0000   1.0000
     1.0000   1.0000   1.0000   1.0000   1.0000   1.0000   1.0000   1.0000
     1.0000   1.0000   1.0000   1.0000   1.0000   1.0000   1.0000   1.0000
     0.0000   0.0000   0.0000   0.0000   0.0000   0.0000   0.0000   0.0000
     0.0000   0.0000   0.0000   0.0000   0.0000   0.0000   0.0000   0.0000
     0.0000   0.0000   0.0000   0.0000   0.0000   0.0000   0.0000   0.0000
     0.0000   0.0000   0.0000   0.0000   0.0000   0.0000   0.0000   0.0000
     0.0000   0.0000   0.0000   0.0000   0.0000   0.0000   0.0000   0.0000
     0.0000   0.0000   0.0000   0.0000   0.0000   0.0000   0.0000   0.0000
     0.0000   0.0000   0.0000   0.0000   0.0000   0.0000   0.0000   0.0000
     0.0000   0.0000   0.0000   0.0000   0.0000   0.0000   0.0000   0.0000
     0.0000   0.0000   0.0000   0.0000   0.0000   0.0000   0.0000   0.0000
     0.0000   0.0000   0.0000   0.0000   0.0000   0.0000   0.0000   0.0000
     0.0000   0.0000   0.0000   0.0000   0.0000   0.0000   0.0000   0.0000
     0.0000   0.0000   0.0000   0.0000   0.0000   0.0000   0.0000   0.0000
     0.0000   0.0000   0.0000   0.0000   0.0000   0.0000   0.0000   0.0000
     0.0000   0.0000   0.0000   0.0000   0.0000   0.0000   0.0000   0.0000
     0.0000   0.0000   0.0000   0.0000   0.0000   0.0000   0.0000   0.0000
     0.0000   0.0000   0.0000   0.0000   0.0000   0.0000   0.0000   0.0000
     0.0000   0.0000   0.0000   0.0000   0.0000   0.0000   0.0000   0.0000
     0.0000   0.0000   0.0000   0.0000   0.0000   0.0000   0.0000   0.0000
     0.0000   0.0000   0.0000   0.0000   0.0000   0.0000   0.0000   0.0000
     0.0000   0.0000   0.0000   0.0000   0.0000   0.0000   0.0000   0.0000
     0.0000   0.0000   0.0000   0.0000   0.0000   0.0000   0.0000   0.0000

          k =-1.3462 0.2591 0.2111 (  7417 PWs)   bands (ev):

  -102.8545-101.7112 -61.8019 -61.7449 -61.7163 -60.4866 -60.4800 -60.4502
    -7.6599  -7.4177  -7.1827  -6.9170   0.7061   0.9103   1.1020   1.5013
     1.6738   1.8239   2.3198   2.4150   2.6657   3.0552   3.1452   3.3473
     3.5734   3.6625   3.8664   4.1120   4.3869   4.4986   4.5928   4.8920
     5.6922   5.9607   8.9461   9.3815  10.5494  11.2755  11.6103  11.7777
    11.8599  12.1443  12.5634  12.7424  13.4307  13.6178  13.7090  14.5803
    14.6562  15.0848  15.2654  16.4001  17.2503  17.4367  17.6828  17.7694
    17.8679  18.2778  18.8316  19.4912  19.9473  20.0404  20.5115  20.9929
    21.1481  21.2504  21.3333  22.1702  22.4368  22.5884  22.8824  22.9178
    23.3038  23.5924  23.6807  23.9779  24.4033  24.7205  24.8014  25.1121
    25.6836  25.8272  26.1965  26.5875  26.9479  27.0874  27.4661  27.8424
    28.0361  28.1460  28.8962  29.0294  29.3211  29.7014  29.9482  30.2782
    30.4773  30.6032  30.8316  30.9451  31.2319  31.4666  31.7386  31.9169
    32.5272  32.6690  33.0006  33.0765  33.6076  33.7991  33.8172  34.1609
    34.7164  34.9088  35.1678  35.2806  35.4020  35.5056  36.0174  36.2616
    36.5099  36.6369  36.7494  37.3609  37.5230  37.7691  37.9736  38.0595
    38.1445  38.3347  38.4493  38.7231  38.8130  39.4545  39.5866  39.6891
    39.8433  40.2422  40.5253  40.9604  41.5057  41.6679  41.7938  41.9276
    41.9836  42.2055  42.3213  42.8039  42.9525  43.3444  43.6641  43.9408
    44.0367  44.4940  44.5151  45.0388  45.3642  45.5184  45.7419  45.8593
    45.9871  46.1248  46.2277  46.5729  46.5978  46.7595  46.9997  47.1241
    47.2327  47.2896  47.4945  47.7711  47.9496  47.9612  48.2579  48.4416
    48.7475  48.9043  48.9135  49.3554  49.4502  49.4879  50.2018  50.6177
    50.7823  50.9274  51.2977  51.4568  51.6618  51.8947  51.9835  52.1750
    52.2722  52.3566  52.4932  52.7657  53.1714  53.6361  53.7223  53.8012

     occupation numbers 
     1.0000   1.0000   1.0000   1.0000   1.0000   1.0000   1.0000   1.0000
     1.0000   1.0000   1.0000   1.0000   1.0000   1.0000   1.0000   1.0000
     1.0000   1.0000   1.0000   1.0000   1.0000   1.0000   1.0000   1.0000
     1.0000   1.0000   1.0000   1.0000   1.0000   1.0000   1.0000   1.0000
     0.0000   0.0000   0.0000   0.0000   0.0000   0.0000   0.0000   0.0000
     0.0000   0.0000   0.0000   0.0000   0.0000   0.0000   0.0000   0.0000
     0.0000   0.0000   0.0000   0.0000   0.0000   0.0000   0.0000   0.0000
     0.0000   0.0000   0.0000   0.0000   0.0000   0.0000   0.0000   0.0000
     0.0000   0.0000   0.0000   0.0000   0.0000   0.0000   0.0000   0.0000
     0.0000   0.0000   0.0000   0.0000   0.0000   0.0000   0.0000   0.0000
     0.0000   0.0000   0.0000   0.0000   0.0000   0.0000   0.0000   0.0000
     0.0000   0.0000   0.0000   0.0000   0.0000   0.0000   0.0000   0.0000
     0.0000   0.0000   0.0000   0.0000   0.0000   0.0000   0.0000   0.0000
     0.0000   0.0000   0.0000   0.0000   0.0000   0.0000   0.0000   0.0000
     0.0000   0.0000   0.0000   0.0000   0.0000   0.0000   0.0000   0.0000
     0.0000   0.0000   0.0000   0.0000   0.0000   0.0000   0.0000   0.0000
     0.0000   0.0000   0.0000   0.0000   0.0000   0.0000   0.0000   0.0000
     0.0000   0.0000   0.0000   0.0000   0.0000   0.0000   0.0000   0.0000
     0.0000   0.0000   0.0000   0.0000   0.0000   0.0000   0.0000   0.0000
     0.0000   0.0000   0.0000   0.0000   0.0000   0.0000   0.0000   0.0000
     0.0000   0.0000   0.0000   0.0000   0.0000   0.0000   0.0000   0.0000
     0.0000   0.0000   0.0000   0.0000   0.0000   0.0000   0.0000   0.0000
     0.0000   0.0000   0.0000   0.0000   0.0000   0.0000   0.0000   0.0000
     0.0000   0.0000   0.0000   0.0000   0.0000   0.0000   0.0000   0.0000
     0.0000   0.0000   0.0000   0.0000   0.0000   0.0000   0.0000   0.0000

          k = 1.7949 2.0726-0.0844 (  7434 PWs)   bands (ev):

  -102.8555-101.7122 -61.8090 -61.7501 -61.7397 -60.4942 -60.4849 -60.4741
    -7.3727  -7.1311  -7.1030  -6.8460   0.4487   0.6606   1.0574   1.3302
     1.5053   1.8284   1.9087   2.0245   2.5995   2.6577   2.7124   3.2374
     3.3835   3.4530   3.7688   4.1758   4.2314   4.3232   4.4745   4.8157
     5.5332   5.9564   9.0246   9.3681  10.3353  11.5753  11.6398  12.0893
    12.4101  12.7705  12.9078  13.0720  13.2359  13.3690  13.6115  13.9807
    14.5713  14.9322  15.6062  16.3742  17.2116  17.8524  18.5145  18.9127
    19.1931  19.2585  19.7044  19.7575  20.0112  20.7361  20.7907  20.9666
    21.1206  21.3412  21.4464  21.6969  21.8681  22.4497  23.1590  23.5102
[...]

     occupation numbers 
     1.0000   1.0000   1.0000   1.0000   1.0000   1.0000   1.0000   1.0000
     1.0000   1.0000   1.0000   1.0000   1.0000   1.0000   1.0000   1.0000
     1.0000   1.0000   1.0000   1.0000   1.0000   1.0000   1.0000   1.0000
     1.0000   1.0000   1.0000   1.0000   1.0000   1.0000   1.0000   1.0000
     0.0000   0.0000   0.0000   0.0000   0.0000   0.0000   0.0000   0.0000
     0.0000   0.0000   0.0000   0.0000   0.0000   0.0000   0.0000   0.0000
     0.0000   0.0000   0.0000   0.0000   0.0000   0.0000   0.0000   0.0000
     0.0000   0.0000   0.0000   0.0000   0.0000   0.0000   0.0000   0.0000
     0.0000   0.0000   0.0000   0.0000   0.0000   0.0000   0.0000   0.0000
     0.0000   0.0000   0.0000   0.0000   0.0000   0.0000   0.0000   0.0000
     0.0000   0.0000   0.0000   0.0000   0.0000   0.0000   0.0000   0.0000
     0.0000   0.0000   0.0000   0.0000   0.0000   0.0000   0.0000   0.0000
     0.0000   0.0000   0.0000   0.0000   0.0000   0.0000   0.0000   0.0000
     0.0000   0.0000   0.0000   0.0000   0.0000   0.0000   0.0000   0.0000
     0.0000   0.0000   0.0000   0.0000   0.0000   0.0000   0.0000   0.0000
     0.0000   0.0000   0.0000   0.0000   0.0000   0.0000   0.0000   0.0000
     0.0000   0.0000   0.0000   0.0000   0.0000   0.0000   0.0000   0.0000
     0.0000   0.0000   0.0000   0.0000   0.0000   0.0000   0.0000   0.0000
     0.0000   0.0000   0.0000   0.0000   0.0000   0.0000   0.0000   0.0000
     0.0000   0.0000   0.0000   0.0000   0.0000   0.0000   0.0000   0.0000
     0.0000   0.0000   0.0000   0.0000   0.0000   0.0000   0.0000   0.0000
     0.0000   0.0000   0.0000   0.0000   0.0000   0.0000   0.0000   0.0000
     0.0000   0.0000   0.0000   0.0000   0.0000   0.0000   0.0000   0.0000
     0.0000   0.0000   0.0000   0.0000   0.0000   0.0000   0.0000   0.0000
     0.0000   0.0000   0.0000   0.0000   0.0000   0.0000   0.0000   0.0000

          k = 2.6923 1.5544 0.1266 (  7424 PWs)   bands (ev):

  -102.8548-101.7114 -61.7922 -61.7522 -61.7223 -60.4874 -60.4766 -60.4563
    -7.8980  -7.6646  -7.2709  -7.0125   0.8642   1.0193   1.3044   1.7365
     1.7522   1.9892   2.4758   2.8378   2.9770   3.2123   3.5041   3.5288
     3.7234   3.9420   3.9681   4.0642   4.4370   4.5215   4.6039   5.1756
     5.6368   6.1535   9.0567   9.3098  10.2787  10.9231  11.5653  11.6506
    12.5641  12.7129  12.7445  12.8827  13.1976  13.4419  13.5677  14.1531
    14.8986  15.0833  15.3279  15.4100  16.0326  16.2506  16.4082  17.4837
    17.7487  17.8046  18.5591  19.3661  19.5761  19.6593  19.8966  20.1149
    20.4231  20.4302  20.9048  21.0430  21.2087  21.4292  22.3578  22.4205
    23.5959  23.8258  24.1737  24.2588  24.6098  25.2986  25.5070  25.8048
    25.9612  26.2102  26.2964  26.3712  26.6143  27.2401  27.3279  27.4308
    27.7305  27.8453  27.9565  28.2275  29.1974  29.4865  29.6198  30.3946
    30.4953  31.3503  31.5348  31.7994  32.5424  32.6390  32.7992  32.9197
    33.5211  33.8327  34.0231  34.1505  34.1925  34.3548  34.4735  34.5351
    34.7263  34.7833  35.6091  35.8794  35.9935  36.1501  36.4807  36.6788
    37.0135  37.0713  37.1977  37.4981  37.7985  37.8841  38.1398  38.2188
    38.4228  39.1779  39.2947  39.5602  39.8927  40.5835  40.6275  41.1624
    41.2157  41.3646  41.5656  41.9907  42.1294  42.1742  42.5667  42.5844
    42.8957  43.0331  43.0503  43.1591  43.2099  43.5295  43.6531  43.7176
    43.9639  44.0118  44.0462  44.1264  44.1683  44.3624  44.6156  44.8476
    44.9711  45.3793  45.4494  45.5138  45.5705  46.4527  46.8092  46.9224
    47.0396  47.3768  47.4633  47.8175  47.9650  48.0331  48.1334  48.3066
    48.7960  48.8165  49.0495  49.1701  49.2798  50.1155  50.3995  50.5102
    50.7188  50.8562  51.1049  51.3501  51.5056  51.6812  51.8243  51.9468
    52.0503  52.0520  52.1816  52.3801  52.8710  53.1724  53.3215  53.5474

     occupation numbers 
     1.0000   1.0000   1.0000   1.0000   1.0000   1.0000   1.0000   1.0000
     1.0000   1.0000   1.0000   1.0000   1.0000   1.0000   1.0000   1.0000
     1.0000   1.0000   1.0000   1.0000   1.0000   1.0000   1.0000   1.0000
     1.0000   1.0000   1.0000   1.0000   1.0000   1.0000   1.0000   1.0000
     0.0000   0.0000   0.0000   0.0000   0.0000   0.0000   0.0000   0.0000
     0.0000   0.0000   0.0000   0.0000   0.0000   0.0000   0.0000   0.0000
     0.0000   0.0000   0.0000   0.0000   0.0000   0.0000   0.0000   0.0000
     0.0000   0.0000   0.0000   0.0000   0.0000   0.0000   0.0000   0.0000
     0.0000   0.0000   0.0000   0.0000   0.0000   0.0000   0.0000   0.0000
     0.0000   0.0000   0.0000   0.0000   0.0000   0.0000   0.0000   0.0000
     0.0000   0.0000   0.0000   0.0000   0.0000   0.0000   0.0000   0.0000
     0.0000   0.0000   0.0000   0.0000   0.0000   0.0000   0.0000   0.0000
     0.0000   0.0000   0.0000   0.0000   0.0000   0.0000   0.0000   0.0000
     0.0000   0.0000   0.0000   0.0000   0.0000   0.0000   0.0000   0.0000
     0.0000   0.0000   0.0000   0.0000   0.0000   0.0000   0.0000   0.0000
     0.0000   0.0000   0.0000   0.0000   0.0000   0.0000   0.0000   0.0000
     0.0000   0.0000   0.0000   0.0000   0.0000   0.0000   0.0000   0.0000
     0.0000   0.0000   0.0000   0.0000   0.0000   0.0000   0.0000   0.0000
     0.0000   0.0000   0.0000   0.0000   0.0000   0.0000   0.0000   0.0000
     0.0000   0.0000   0.0000   0.0000   0.0000   0.0000   0.0000   0.0000
     0.0000   0.0000   0.0000   0.0000   0.0000   0.0000   0.0000   0.0000
     0.0000   0.0000   0.0000   0.0000   0.0000   0.0000   0.0000   0.0000
     0.0000   0.0000   0.0000   0.0000   0.0000   0.0000   0.0000   0.0000
     0.0000   0.0000   0.0000   0.0000   0.0000   0.0000   0.0000   0.0000
     0.0000   0.0000   0.0000   0.0000   0.0000   0.0000   0.0000   0.0000

          k = 3.1411-1.8135-0.2111 (  7466 PWs)   bands (ev):

  -102.8573-101.7137 -61.8104 -61.7693 -61.7546 -60.5058 -60.4927 -60.4900
    -8.1886  -7.9599  -7.4089  -7.1543   0.6870   0.8992   1.5621   1.7114
     2.4444   2.7993   2.8744   3.0727   3.2990   3.4719   3.7262   3.8520
     3.8557   4.0882   4.2532   4.3031   4.6006   4.6572   4.8050   5.2767
     5.8319   6.2260   9.6009   9.8111  10.3174  10.4444  11.0539  11.3066
    11.9723  12.1299  12.3790  12.7009  13.4753  13.6607  14.1120  14.3817
    14.4108  14.6241  14.6379  15.5309  15.7339  16.2143  16.5138  16.7957
    17.1472  17.5009  17.5408  18.0454  18.2555  18.4847  18.6260  19.0639
    19.2768  19.4861  19.7774  20.2030  21.1617  21.3770  21.5878  22.2256
    22.3108  22.8199  23.3217  23.5655  23.6253  24.0542  24.7264  25.1485
    25.3538  25.7960  26.5529  27.2662  27.7025  28.6559  28.9373  29.2479
    29.3255  29.4451  29.5139  29.8547  29.9950  30.1164  30.9455  31.0963
    31.1380  31.3065  31.4332  31.5086  31.7527  32.9647  32.9896  33.3989
    33.5508  33.6171  33.7950  35.0108  35.5188  35.5743  35.6295  35.7819
    36.2110  36.5477  36.6453  36.7944  37.0321  37.2503  37.3935  37.5187
    37.5585  37.9435  38.0296  38.1120  38.5693  38.6783  39.0185  39.0746
    39.2945  39.4514  39.7290  39.7493  40.3843  40.5164  40.6085  40.8420
    41.2488  41.3939  41.5990  41.6682  41.6884  41.8496  42.0001  42.2867
    42.4558  42.4675  42.5262  42.7069  43.2265  43.4562  43.9128  44.2051
    44.4207  44.5689  44.9914  45.2406  45.2526  45.4044  45.4388  45.4819
    45.6089  45.7183  46.0776  46.1551  46.2945  46.4745  46.7676  46.8681
    47.0116  47.0408  47.1754  47.2319  47.3883  47.7176  47.7795  48.0056
    48.3303  49.0176  49.2297  49.7481  49.7733  50.0214  50.1468  50.2697
    50.3578  50.6189  50.6370  50.7331  50.8002  50.9793  51.1761  51.9017
    51.9767  52.2683  52.3761  52.4508  52.5173  52.6236  52.7839  52.9149

     occupation numbers 
     1.0000   1.0000   1.0000   1.0000   1.0000   1.0000   1.0000   1.0000
     1.0000   1.0000   1.0000   1.0000   1.0000   1.0000   1.0000   1.0000
     1.0000   1.0000   1.0000   1.0000   1.0000   1.0000   1.0000   1.0000
     1.0000   1.0000   1.0000   1.0000   1.0000   1.0000   1.0000   1.0000
     0.0000   0.0000   0.0000   0.0000   0.0000   0.0000   0.0000   0.0000
     0.0000   0.0000   0.0000   0.0000   0.0000   0.0000   0.0000   0.0000
     0.0000   0.0000   0.0000   0.0000   0.0000   0.0000   0.0000   0.0000
     0.0000   0.0000   0.0000   0.0000   0.0000   0.0000   0.0000   0.0000
     0.0000   0.0000   0.0000   0.0000   0.0000   0.0000   0.0000   0.0000
     0.0000   0.0000   0.0000   0.0000   0.0000   0.0000   0.0000   0.0000
     0.0000   0.0000   0.0000   0.0000   0.0000   0.0000   0.0000   0.0000
     0.0000   0.0000   0.0000   0.0000   0.0000   0.0000   0.0000   0.0000
     0.0000   0.0000   0.0000   0.0000   0.0000   0.0000   0.0000   0.0000
     0.0000   0.0000   0.0000   0.0000   0.0000   0.0000   0.0000   0.0000
     0.0000   0.0000   0.0000   0.0000   0.0000   0.0000   0.0000   0.0000
     0.0000   0.0000   0.0000   0.0000   0.0000   0.0000   0.0000   0.0000
     0.0000   0.0000   0.0000   0.0000   0.0000   0.0000   0.0000   0.0000
     0.0000   0.0000   0.0000   0.0000   0.0000   0.0000   0.0000   0.0000
     0.0000   0.0000   0.0000   0.0000   0.0000   0.0000   0.0000   0.0000
     0.0000   0.0000   0.0000   0.0000   0.0000   0.0000   0.0000   0.0000
     0.0000   0.0000   0.0000   0.0000   0.0000   0.0000   0.0000   0.0000
     0.0000   0.0000   0.0000   0.0000   0.0000   0.0000   0.0000   0.0000
     0.0000   0.0000   0.0000   0.0000   0.0000   0.0000   0.0000   0.0000
     0.0000   0.0000   0.0000   0.0000   0.0000   0.0000   0.0000   0.0000
     0.0000   0.0000   0.0000   0.0000   0.0000   0.0000   0.0000   0.0000

          k = 2.6923-2.0726-0.1689 (  7430 PWs)   bands (ev):

  -102.8552-101.7117 -61.7909 -61.7585 -61.7257 -60.4942 -60.4747 -60.4595
    -7.9887  -7.7572  -7.3100  -7.0531   0.8566   1.0280   1.4089   1.7015
     2.0176   2.3889   2.6774   2.7049   2.7857   3.3060   3.5028   3.7197
     3.7586   3.9762   4.0954   4.1321   4.5451   4.5673   4.7661   4.8968
     5.7753   5.9206   9.6596   9.8912  10.8448  10.8482  11.2233  11.3397
    12.3589  12.3849  12.4531  12.6061  13.2833  13.4376  13.7623  13.8096
    14.4169  14.5659  15.3537  15.3660  16.1867  16.2805  16.9559  17.0264
    17.8428  17.8432  18.5863  18.7782  19.1243  19.1395  19.7084  19.7286
    20.1428  20.1475  20.4524  20.6066  21.4900  21.5114  22.0039  22.1394
    22.6632  22.6868  24.0696  24.1441  24.6860  24.7046  25.8757  25.9793
    26.0402  26.1068  26.5852  26.6089  26.9495  27.0277  27.7567  27.7600
    28.2083  28.3597  29.0514  29.1250  30.4025  30.5355  30.8075  30.8151
    30.8337  30.9141  31.2701  31.2971  32.1030  32.2379  32.2666  32.2758
    32.8754  32.9057  33.1926  33.2289  33.7416  33.8208  34.2856  34.3351
    35.5628  35.6607  36.7455  36.8145  36.9401  36.9726  37.3333  37.3900
    37.8087  37.9160  38.2896  38.3032  38.6605  38.6785  39.1538  39.1552
    39.6036  39.6134  39.9772  39.9826  40.1596  40.2408  40.3368  40.3612
    40.5383  40.5472  40.8819  40.9824  41.2790  41.3270  41.7449  41.8490
    42.0618  42.0648  42.3839  42.3911  42.8626  42.9297  43.2642  43.2970
    43.4121  43.4624  44.7040  44.7227  45.3277  45.3454  45.8528  45.8823
    46.1552  46.1640  46.6606  46.6739  46.8539  46.8735  46.9443  47.0201
    47.6376  47.6904  47.9204  47.9413  48.2549  48.3343  48.4174  48.4748
    48.8481  48.8931  49.0854  49.0935  49.4223  49.4472  49.7429  49.7899
    50.0681  50.0728  50.7700  50.7988  51.1671  51.1926  51.3209  51.3571
    51.4987  51.5329  51.8095  51.8352  51.9995  52.0430  52.7545  52.7597

     occupation numbers 
     1.0000   1.0000   1.0000   1.0000   1.0000   1.0000   1.0000   1.0000
     1.0000   1.0000   1.0000   1.0000   1.0000   1.0000   1.0000   1.0000
     1.0000   1.0000   1.0000   1.0000   1.0000   1.0000   1.0000   1.0000
     1.0000   1.0000   1.0000   1.0000   1.0000   1.0000   1.0000   1.0000
     0.0000   0.0000   0.0000   0.0000   0.0000   0.0000   0.0000   0.0000
     0.0000   0.0000   0.0000   0.0000   0.0000   0.0000   0.0000   0.0000
     0.0000   0.0000   0.0000   0.0000   0.0000   0.0000   0.0000   0.0000
     0.0000   0.0000   0.0000   0.0000   0.0000   0.0000   0.0000   0.0000
     0.0000   0.0000   0.0000   0.0000   0.0000   0.0000   0.0000   0.0000
     0.0000   0.0000   0.0000   0.0000   0.0000   0.0000   0.0000   0.0000
     0.0000   0.0000   0.0000   0.0000   0.0000   0.0000   0.0000   0.0000
     0.0000   0.0000   0.0000   0.0000   0.0000   0.0000   0.0000   0.0000
     0.0000   0.0000   0.0000   0.0000   0.0000   0.0000   0.0000   0.0000
     0.0000   0.0000   0.0000   0.0000   0.0000   0.0000   0.0000   0.0000
     0.0000   0.0000   0.0000   0.0000   0.0000   0.0000   0.0000   0.0000
     0.0000   0.0000   0.0000   0.0000   0.0000   0.0000   0.0000   0.0000
     0.0000   0.0000   0.0000   0.0000   0.0000   0.0000   0.0000   0.0000
     0.0000   0.0000   0.0000   0.0000   0.0000   0.0000   0.0000   0.0000
     0.0000   0.0000   0.0000   0.0000   0.0000   0.0000   0.0000   0.0000
     0.0000   0.0000   0.0000   0.0000   0.0000   0.0000   0.0000   0.0000
     0.0000   0.0000   0.0000   0.0000   0.0000   0.0000   0.0000   0.0000
     0.0000   0.0000   0.0000   0.0000   0.0000   0.0000   0.0000   0.0000
     0.0000   0.0000   0.0000   0.0000   0.0000   0.0000   0.0000   0.0000
     0.0000   0.0000   0.0000   0.0000   0.0000   0.0000   0.0000   0.0000
     0.0000   0.0000   0.0000   0.0000   0.0000   0.0000   0.0000   0.0000

          k = 0.0000 0.0000-0.5066 (  7440 PWs)   bands (ev):

  -102.8556-101.7121 -61.8188 -61.7303 -61.7303 -60.5035 -60.4652 -60.4652
    -8.2963  -8.0694  -7.4662  -7.2136   0.5804   0.7909   1.7161   1.7161
     2.8045   2.8045   3.1777   3.1777   3.3905   3.5991   3.9259   4.0659
     4.0659   4.2172   4.4323   4.4323   4.6817   4.6817   5.3793   5.3793
     6.3180   6.3180   9.1586   9.3346   9.6890   9.8025  11.5933  11.5933
    11.7231  11.7231  12.3550  12.4142  14.1476  14.1476  14.1946  14.3786
    14.3786  14.4426  15.8417  15.9022  16.3042  16.3042  16.4490  16.4490
    16.4787  16.5195  17.2339  17.3213  17.3849  17.3849  17.4422  17.4422
    19.7103  19.7103  19.8372  19.8372  21.8088  21.8173  22.3770  22.3770
    22.3964  22.4510  22.4510  22.4582  22.7937  22.8103  24.6975  24.6975
    24.8093  24.8093  27.9320  27.9393  28.2091  28.2091  28.2580  28.2580
    29.0950  29.1165  29.8586  29.8590  31.0155  31.0155  31.0234  31.0234
    32.3426  32.5074  33.7974  33.9672  33.9672  34.0476  34.1375  34.1375
    35.1022  35.1118  35.3841  35.3841  35.5150  35.5150  36.1248  36.1248
    36.1729  36.1729  36.2039  36.2719  36.2719  36.3009  36.4055  36.4055
    36.7622  36.7622  36.8358  36.8358  38.2121  38.2281  38.7131  38.7131
    38.7521  38.7521  40.5574  40.6211  40.8295  40.9686  41.6187  41.6187
    41.6422  41.6658  41.7339  41.7339  42.0787  42.0839  42.4818  42.4818
    42.6714  42.6714  43.2110  43.2846  43.8809  44.0450  44.3859  44.3859
    44.4686  44.4686  44.9199  44.9860  45.2399  45.2399  45.2623  45.2623
    45.6675  45.7268  45.8679  46.0018  46.5439  46.5439  46.7034  46.7034
    47.4398  47.4398  47.5068  47.5068  48.6622  48.7067  48.8304  48.8304
    48.9522  48.9522  49.0288  49.0707  49.3637  49.3637  49.5496  49.5496
    50.3818  50.3818  50.4308  50.4308  50.7498  50.7587  50.8679  50.8679
    50.8978  50.8978  51.0869  51.1641  52.3392  52.3392  52.3479  52.3479

     occupation numbers 
     1.0000   1.0000   1.0000   1.0000   1.0000   1.0000   1.0000   1.0000
     1.0000   1.0000   1.0000   1.0000   1.0000   1.0000   1.0000   1.0000
     1.0000   1.0000   1.0000   1.0000   1.0000   1.0000   1.0000   1.0000
     1.0000   1.0000   1.0000   1.0000   1.0000   1.0000   1.0000   1.0000
     0.0000   0.0000   0.0000   0.0000   0.0000   0.0000   0.0000   0.0000
     0.0000   0.0000   0.0000   0.0000   0.0000   0.0000   0.0000   0.0000
     0.0000   0.0000   0.0000   0.0000   0.0000   0.0000   0.0000   0.0000
     0.0000   0.0000   0.0000   0.0000   0.0000   0.0000   0.0000   0.0000
     0.0000   0.0000   0.0000   0.0000   0.0000   0.0000   0.0000   0.0000
     0.0000   0.0000   0.0000   0.0000   0.0000   0.0000   0.0000   0.0000
     0.0000   0.0000   0.0000   0.0000   0.0000   0.0000   0.0000   0.0000
     0.0000   0.0000   0.0000   0.0000   0.0000   0.0000   0.0000   0.0000
     0.0000   0.0000   0.0000   0.0000   0.0000   0.0000   0.0000   0.0000
     0.0000   0.0000   0.0000   0.0000   0.0000   0.0000   0.0000   0.0000
     0.0000   0.0000   0.0000   0.0000   0.0000   0.0000   0.0000   0.0000
     0.0000   0.0000   0.0000   0.0000   0.0000   0.0000   0.0000   0.0000
     0.0000   0.0000   0.0000   0.0000   0.0000   0.0000   0.0000   0.0000
     0.0000   0.0000   0.0000   0.0000   0.0000   0.0000   0.0000   0.0000
     0.0000   0.0000   0.0000   0.0000   0.0000   0.0000   0.0000   0.0000
     0.0000   0.0000   0.0000   0.0000   0.0000   0.0000   0.0000   0.0000
     0.0000   0.0000   0.0000   0.0000   0.0000   0.0000   0.0000   0.0000
     0.0000   0.0000   0.0000   0.0000   0.0000   0.0000   0.0000   0.0000
     0.0000   0.0000   0.0000   0.0000   0.0000   0.0000   0.0000   0.0000
     0.0000   0.0000   0.0000   0.0000   0.0000   0.0000   0.0000   0.0000
     0.0000   0.0000   0.0000   0.0000   0.0000   0.0000   0.0000   0.0000

     highest occupied, lowest unoccupied level (ev):     5.3848    5.5332

     Writing all to output data dir ./tmp/NiI2.save/ :
     XML data file, pseudopotentials, collected wavefunctions

     init_run     :      1.15s CPU      1.29s WALL (       1 calls)
     electrons    :    176.41s CPU    178.94s WALL (       1 calls)

     Called by init_run:
     wfcinit      :      0.00s CPU      0.00s WALL (       1 calls)
     wfcinit:atom :      0.00s CPU      0.00s WALL (      17 calls)
     wfcinit:wfcr :      5.32s CPU      5.44s WALL (      17 calls)
     potinit      :      0.13s CPU      0.20s WALL (       1 calls)
     hinit0       :      0.88s CPU      0.95s WALL (       1 calls)

     Called by electrons:
     c_bands      :    176.35s CPU    178.88s WALL (       1 calls)
     v_of_rho     :      0.08s CPU      0.09s WALL (       1 calls)
     v_h          :      0.00s CPU      0.00s WALL (       1 calls)
     v_xc         :      0.08s CPU      0.09s WALL (       1 calls)

     Called by c_bands:
     init_us_2    :      0.00s CPU      0.00s WALL (      17 calls)
     cegterg      :    168.84s CPU    171.19s WALL (      34 calls)

     Called by sum_band:

     Called by *egterg:
     cdiaghg      :     73.82s CPU     74.46s WALL (     611 calls)
     cegterg:over :      4.29s CPU      4.60s WALL (     594 calls)
     cegterg:upda :      2.27s CPU      2.31s WALL (     594 calls)
     cegterg:last :      4.73s CPU      5.15s WALL (     321 calls)
     cdiaghg:chol :      1.56s CPU      1.66s WALL (     611 calls)
     cdiaghg:inve :      1.44s CPU      1.47s WALL (     611 calls)
     cdiaghg:para :     10.38s CPU     10.83s WALL (    1222 calls)
     h_psi        :     88.50s CPU     89.45s WALL (     645 calls)
     g_psi        :      0.06s CPU      0.06s WALL (     594 calls)

     Called by h_psi:
     h_psi:calbec :      0.68s CPU      0.73s WALL (     645 calls)
     vloc_psi     :     87.21s CPU     88.10s WALL (     645 calls)
                                        0.00s GPU  (     645 calls)
     add_vuspsi   :      0.56s CPU      0.56s WALL (     645 calls)

     General routines
     calbec       :      0.68s CPU      0.73s WALL (     645 calls)
     fft          :      0.87s CPU      0.93s WALL (      19 calls)
     fftw         :     79.08s CPU     79.87s WALL (  134968 calls)
     davcio       :      0.01s CPU      0.03s WALL (      34 calls)

     Parallel routines

     PWSCF        :   2m59.59s CPU   3m14.95s WALL


   This run was terminated on:  12:28:49   5Mar2026            

=------------------------------------------------------------------------------=
   JOB DONE.
=------------------------------------------------------------------------------=
