
     Program PWSCF v.7.3.1 starts on  8Feb2026 at 19:30:34 

     This program is part of the open-source Quantum ESPRESSO suite
     for quantum simulation of materials; please cite
         "P. Giannozzi et al., J. Phys.:Condens. Matter 21 395502 (2009);
         "P. Giannozzi et al., J. Phys.:Condens. Matter 29 465901 (2017);
         "P. Giannozzi et al., J. Chem. Phys. 152 154105 (2020);
          URL http://www.quantum-espresso.org", 
     in publications or presentations arising from this work. More details at
     http://www.quantum-espresso.org/quote

     Parallel version (MPI), running on  2048 processors

     MPI processes distributed on    16 nodes
     233168 MiB available memory on the printing compute node when the environment starts

     Waiting for input...
     Reading input from standard input

     Current dimensions of program PWSCF are:
     Max number of different atomic species (ntypx) = 10
     Max number of k-points (npk) =  40000
     Max angular momentum in pseudopotentials (lmaxx) =  4

     Atomic positions and unit cell read from directory:
     ./tmp/MoS2.save/


     K-points division:     npool     =      64
     R & G space division:  proc/nbgrp/npool/nimage =      32
     Subspace diagonalization in iterative solution of the eigenvalue problem:
     one sub-group per band group will be used
     custom distributed-memory algorithm (size of sub-group:  2*  2 procs)

     Message from routine divide_et_impera:
     suboptimal parallelization: some nodes have no k-points

     Parallelization info
     --------------------
     sticks:   dense  smooth     PW     G-vecs:    dense   smooth      PW
     Min          24      24      6                 3672     3672     552
     Max          25      25      7                 3700     3700     593
     Sum         769     769    223               117923   117923   18417

     Using Slab Decomposition



     bravais-lattice index     =            4
     lattice parameter (alat)  =       5.9358  a.u.
     unit-cell volume          =    1220.5221 (a.u.)^3
     number of atoms/cell      =            3
     number of atomic types    =            2
     number of electrons       =        26.00
     number of Kohn-Sham states=          200
     kinetic-energy cutoff     =      80.0000  Ry
     charge density cutoff     =     320.0000  Ry
     Exchange-correlation= PBESOL
                           (   1   4  10   8   0   0   0)

     celldm(1)=   5.935776  celldm(2)=   0.000000  celldm(3)=   6.738799
     celldm(4)=   0.000000  celldm(5)=   0.000000  celldm(6)=   0.000000

     crystal axes: (cart. coord. in units of alat)
               a(1) = (   1.000000   0.000000   0.000000 )  
               a(2) = (  -0.500000   0.866025   0.000000 )  
               a(3) = (   0.000000   0.000000   6.738799 )  

     reciprocal axes: (cart. coord. in units 2 pi/alat)
               b(1) = (  1.000000  0.577350 -0.000000 )  
               b(2) = (  0.000000  1.154701  0.000000 )  
               b(3) = (  0.000000 -0.000000  0.148394 )  


     PseudoPot. # 1 for Mo read from file:
     ./pseudo/Mo.pbesol.dojo.upf
     MD5 check sum: c40353276b9086539cda6b9e5a66907b
     Pseudo is Norm-conserving + core correction, Zval = 14.0
     Generated using ONCVPSP code by D. R. Hamann
     Using radial grid of 1640 points,  6 beta functions with: 
                l(1) =   0
                l(2) =   0
                l(3) =   1
                l(4) =   1
                l(5) =   2
                l(6) =   2

     PseudoPot. # 2 for S  read from file:
     ./pseudo/S.pbesol.dojo.upf
     MD5 check sum: 501737efeeef1fb1c631cda521d4e019
     Pseudo is Norm-conserving + core correction, Zval =  6.0
     Generated using ONCVPSP code by D. R. Hamann
     Using radial grid of 1146 points,  6 beta functions with: 
                l(1) =   0
                l(2) =   0
                l(3) =   1
                l(4) =   1
                l(5) =   2
                l(6) =   2

     atomic species   valence    mass     pseudopotential
     Mo               14.00    95.95000     Mo( 1.00)
     S                 6.00    32.06500     S ( 1.00)

     12 Sym. Ops. (no inversion) found


                                    s                        frac. trans.

      isym =  1     identity                                     

 cryst.   s( 1) = (     1          0          0      )
                  (     0          1          0      )
                  (     0          0          1      )

 cart.    s( 1) = (  1.0000000  0.0000000  0.0000000 )
                  (  0.0000000  1.0000000  0.0000000 )
                  (  0.0000000  0.0000000  1.0000000 )


      isym =  2     180 deg rotation - cart. axis [0,1,0]        

 cryst.   s( 2) = (    -1          0          0      )
                  (     1          1          0      )
                  (     0          0         -1      )

 cart.    s( 2) = ( -1.0000000  0.0000000  0.0000000 )
                  (  0.0000000  1.0000000  0.0000000 )
                  (  0.0000000  0.0000000 -1.0000000 )


      isym =  3     120 deg rotation - cryst. axis [0,0,1]       

 cryst.   s( 3) = (     0          1          0      )
                  (    -1         -1          0      )
                  (     0          0          1      )

 cart.    s( 3) = ( -0.5000000 -0.8660254  0.0000000 )
                  (  0.8660254 -0.5000000  0.0000000 )
                  (  0.0000000  0.0000000  1.0000000 )


      isym =  4     120 deg rotation - cryst. axis [0,0,-1]      

 cryst.   s( 4) = (    -1         -1          0      )
                  (     1          0          0      )
                  (     0          0          1      )

 cart.    s( 4) = ( -0.5000000  0.8660254  0.0000000 )
                  ( -0.8660254 -0.5000000  0.0000000 )
                  (  0.0000000  0.0000000  1.0000000 )


      isym =  5     180 deg rotation - cryst. axis [1,-1,0]      

 cryst.   s( 5) = (     0         -1          0      )
                  (    -1          0          0      )
                  (     0          0         -1      )

 cart.    s( 5) = (  0.5000000 -0.8660254  0.0000000 )
                  ( -0.8660254 -0.5000000  0.0000000 )
                  (  0.0000000  0.0000000 -1.0000000 )


      isym =  6     180 deg rotation - cryst. axis [2,1,0]       

 cryst.   s( 6) = (     1          1          0      )
                  (     0         -1          0      )
                  (     0          0         -1      )

 cart.    s( 6) = (  0.5000000  0.8660254  0.0000000 )
                  (  0.8660254 -0.5000000  0.0000000 )
                  (  0.0000000  0.0000000 -1.0000000 )


      isym =  7     inv. 180 deg rotation - cart. axis [0,0,1]   

 cryst.   s( 7) = (     1          0          0      )
                  (     0          1          0      )
                  (     0          0         -1      )

 cart.    s( 7) = (  1.0000000  0.0000000  0.0000000 )
                  (  0.0000000  1.0000000  0.0000000 )
                  (  0.0000000  0.0000000 -1.0000000 )


      isym =  8     inv. 180 deg rotation - cart. axis [1,0,0]   

 cryst.   s( 8) = (    -1          0          0      )
                  (     1          1          0      )
                  (     0          0          1      )

 cart.    s( 8) = ( -1.0000000  0.0000000  0.0000000 )
                  (  0.0000000  1.0000000  0.0000000 )
                  (  0.0000000  0.0000000  1.0000000 )


      isym =  9     inv.  60 deg rotation - cryst. axis [0,0,1]  

 cryst.   s( 9) = (    -1         -1          0      )
                  (     1          0          0      )
                  (     0          0         -1      )

 cart.    s( 9) = ( -0.5000000  0.8660254  0.0000000 )
                  ( -0.8660254 -0.5000000  0.0000000 )
                  (  0.0000000  0.0000000 -1.0000000 )


      isym = 10     inv.  60 deg rotation - cryst. axis [0,0,-1] 

 cryst.   s(10) = (     0          1          0      )
                  (    -1         -1          0      )
                  (     0          0         -1      )

 cart.    s(10) = ( -0.5000000 -0.8660254  0.0000000 )
                  (  0.8660254 -0.5000000  0.0000000 )
                  (  0.0000000  0.0000000 -1.0000000 )


      isym = 11     inv. 180 deg rotation - cryst. axis [0,1,0]  

 cryst.   s(11) = (     1          1          0      )
                  (     0         -1          0      )
                  (     0          0          1      )

 cart.    s(11) = (  0.5000000  0.8660254  0.0000000 )
                  (  0.8660254 -0.5000000  0.0000000 )
                  (  0.0000000  0.0000000  1.0000000 )


      isym = 12     inv. 180 deg rotation - cryst. axis [1,1,0]  

 cryst.   s(12) = (     0         -1          0      )
                  (    -1          0          0      )
                  (     0          0          1      )

 cart.    s(12) = (  0.5000000 -0.8660254  0.0000000 )
                  ( -0.8660254 -0.5000000  0.0000000 )
                  (  0.0000000  0.0000000  1.0000000 )


     point group D_3h (-62m)
     there are  6 classes
     the character table:

       E     2C3   3C2   s_h   2S3   3s_v 
A'_1   1.00  1.00  1.00  1.00  1.00  1.00
A'_2   1.00  1.00 -1.00  1.00  1.00 -1.00
E'     2.00 -1.00  0.00  2.00 -1.00  0.00
A''1   1.00  1.00  1.00 -1.00 -1.00 -1.00
A''2   1.00  1.00 -1.00 -1.00 -1.00  1.00
E''    2.00 -1.00  0.00 -2.00  1.00  0.00

     the symmetry operations in each class and the name of the first element:

     E        1
          identity                                               
     2C3      3    4
          120 deg rotation - cryst. axis [0,0,1]                 
     3C2      2    6    5
          180 deg rotation - cart. axis [0,1,0]                  
     s_h      7
          inv. 180 deg rotation - cart. axis [0,0,1]             
     2S3      9   10
          inv.  60 deg rotation - cryst. axis [0,0,1]            
     3s_v     8   11   12
          inv. 180 deg rotation - cart. axis [1,0,0]             

   Cartesian axes

     site n.     atom                  positions (alat units)
         1        Mo     tau(   1) = (   0.0000000   0.5773502   0.0000000  )
         2        S      tau(   2) = (   0.5000000   0.2886751   0.4961981  )
         3        S      tau(   3) = (   0.5000000   0.2886751  -0.4961981  )

   Crystallographic axes

     site n.     atom                  positions (cryst. coord.)
         1        Mo     tau(   1) = (  0.3333333  0.6666666  0.0000000  )
         2        S      tau(   2) = (  0.6666667  0.3333333  0.0736330  )
         3        S      tau(   3) = (  0.6666667  0.3333333 -0.0736330  )

     number of k points=    37
                       cart. coord. in units 2pi/alat
        k(    1) = (   0.0000000   0.0000000   0.0000000), wk =   0.0061728
        k(    2) = (   0.0000000   0.0641500   0.0000000), wk =   0.0370370
        k(    3) = (   0.0000000   0.1283001   0.0000000), wk =   0.0370370
        k(    4) = (   0.0000000   0.1924501   0.0000000), wk =   0.0370370
        k(    5) = (   0.0000000   0.2566001   0.0000000), wk =   0.0370370
        k(    6) = (   0.0000000   0.3207501   0.0000000), wk =   0.0370370
        k(    7) = (   0.0000000   0.3849002   0.0000000), wk =   0.0370370
        k(    8) = (   0.0000000   0.4490502   0.0000000), wk =   0.0370370
        k(    9) = (   0.0000000   0.5132002   0.0000000), wk =   0.0370370
        k(   10) = (   0.0000000  -0.5773503   0.0000000), wk =   0.0185185
        k(   11) = (   0.0555556   0.0962250   0.0000000), wk =   0.0370370
        k(   12) = (   0.0555556   0.1603751   0.0000000), wk =   0.0740741
        k(   13) = (   0.0555556   0.2245251   0.0000000), wk =   0.0740741
        k(   14) = (   0.0555556   0.2886751   0.0000000), wk =   0.0740741
        k(   15) = (   0.0555556   0.3528252   0.0000000), wk =   0.0740741
        k(   16) = (   0.0555556   0.4169752   0.0000000), wk =   0.0740741
        k(   17) = (   0.0555556   0.4811252   0.0000000), wk =   0.0740741
        k(   18) = (   0.0555556   0.5452753   0.0000000), wk =   0.0740741
        k(   19) = (   0.1111111   0.1924501   0.0000000), wk =   0.0370370
        k(   20) = (   0.1111111   0.2566001   0.0000000), wk =   0.0740741
        k(   21) = (   0.1111111   0.3207501   0.0000000), wk =   0.0740741
        k(   22) = (   0.1111111   0.3849002   0.0000000), wk =   0.0740741
        k(   23) = (   0.1111111   0.4490502   0.0000000), wk =   0.0740741
        k(   24) = (   0.1111111   0.5132002   0.0000000), wk =   0.0740741
        k(   25) = (   0.1111111   0.5773503   0.0000000), wk =   0.0370370
        k(   26) = (   0.1666667   0.2886751   0.0000000), wk =   0.0370370
        k(   27) = (   0.1666667   0.3528252   0.0000000), wk =   0.0740741
        k(   28) = (   0.1666667   0.4169752   0.0000000), wk =   0.0740741
        k(   29) = (   0.1666667   0.4811252   0.0000000), wk =   0.0740741
        k(   30) = (   0.1666667   0.5452753   0.0000000), wk =   0.0740741
        k(   31) = (   0.2222222   0.3849002   0.0000000), wk =   0.0370370
        k(   32) = (   0.2222222   0.4490502   0.0000000), wk =   0.0740741
        k(   33) = (   0.2222222   0.5132002   0.0000000), wk =   0.0740741
        k(   34) = (   0.2222222   0.5773503   0.0000000), wk =   0.0370370
        k(   35) = (   0.2777778   0.4811252   0.0000000), wk =   0.0370370
        k(   36) = (   0.2777778   0.5452753   0.0000000), wk =   0.0740741
        k(   37) = (   0.3333333   0.5773503   0.0000000), wk =   0.0123457

                       cryst. coord.
        k(    1) = (   0.0000000   0.0000000   0.0000000), wk =   0.0061728
        k(    2) = (   0.0000000   0.0555556   0.0000000), wk =   0.0370370
        k(    3) = (   0.0000000   0.1111111   0.0000000), wk =   0.0370370
        k(    4) = (   0.0000000   0.1666667   0.0000000), wk =   0.0370370
        k(    5) = (   0.0000000   0.2222222   0.0000000), wk =   0.0370370
        k(    6) = (   0.0000000   0.2777778   0.0000000), wk =   0.0370370
        k(    7) = (   0.0000000   0.3333333   0.0000000), wk =   0.0370370
        k(    8) = (   0.0000000   0.3888889   0.0000000), wk =   0.0370370
        k(    9) = (   0.0000000   0.4444444   0.0000000), wk =   0.0370370
        k(   10) = (   0.0000000  -0.5000000   0.0000000), wk =   0.0185185
        k(   11) = (   0.0555556   0.0555556   0.0000000), wk =   0.0370370
        k(   12) = (   0.0555556   0.1111111   0.0000000), wk =   0.0740741
        k(   13) = (   0.0555556   0.1666667   0.0000000), wk =   0.0740741
        k(   14) = (   0.0555556   0.2222222   0.0000000), wk =   0.0740741
        k(   15) = (   0.0555556   0.2777778   0.0000000), wk =   0.0740741
        k(   16) = (   0.0555556   0.3333333   0.0000000), wk =   0.0740741
        k(   17) = (   0.0555556   0.3888889   0.0000000), wk =   0.0740741
        k(   18) = (   0.0555556   0.4444444   0.0000000), wk =   0.0740741
        k(   19) = (   0.1111111   0.1111111   0.0000000), wk =   0.0370370
        k(   20) = (   0.1111111   0.1666667   0.0000000), wk =   0.0740741
        k(   21) = (   0.1111111   0.2222222   0.0000000), wk =   0.0740741
        k(   22) = (   0.1111111   0.2777778   0.0000000), wk =   0.0740741
        k(   23) = (   0.1111111   0.3333333   0.0000000), wk =   0.0740741
        k(   24) = (   0.1111111   0.3888889   0.0000000), wk =   0.0740741
        k(   25) = (   0.1111111   0.4444444   0.0000000), wk =   0.0370370
        k(   26) = (   0.1666667   0.1666667   0.0000000), wk =   0.0370370
        k(   27) = (   0.1666667   0.2222222   0.0000000), wk =   0.0740741
        k(   28) = (   0.1666667   0.2777778   0.0000000), wk =   0.0740741
        k(   29) = (   0.1666667   0.3333333   0.0000000), wk =   0.0740741
        k(   30) = (   0.1666667   0.3888889   0.0000000), wk =   0.0740741
        k(   31) = (   0.2222222   0.2222222   0.0000000), wk =   0.0370370
        k(   32) = (   0.2222222   0.2777778   0.0000000), wk =   0.0740741
        k(   33) = (   0.2222222   0.3333333   0.0000000), wk =   0.0740741
        k(   34) = (   0.2222222   0.3888889   0.0000000), wk =   0.0370370
        k(   35) = (   0.2777778   0.2777778   0.0000000), wk =   0.0370370
        k(   36) = (   0.2777778   0.3333333   0.0000000), wk =   0.0740741
        k(   37) = (   0.3333333   0.3333333   0.0000000), wk =   0.0123457

     Dense  grid:   117923 G-vectors     FFT dimensions: (  36,  36, 240)

     Dynamical RAM for                 wfc:       1.40 MB

     Dynamical RAM for     wfc (w. buffer):       1.40 MB

     Dynamical RAM for           str. fact:       0.11 MB

     Dynamical RAM for           local pot:       0.00 MB

     Dynamical RAM for          nlocal pot:       0.38 MB

     Dynamical RAM for                qrad:       2.87 MB

     Dynamical RAM for          rho,v,vnew:       0.41 MB

     Dynamical RAM for           G-vectors:       0.24 MB

     Dynamical RAM for          h,s,v(r/c):       1.83 MB

     Dynamical RAM for          <psi|beta>:       0.16 MB

     Dynamical RAM for                 psi:       2.81 MB

     Dynamical RAM for                hpsi:       2.81 MB

     Dynamical RAM for      wfcinit/wfcrot:       3.72 MB

     Estimated static dynamical RAM per process >       5.97 MB

     Estimated max dynamical RAM per process >      13.58 MB

     Estimated total dynamical RAM >      27.17 GB
 ----2D----2D----2D----2D----2D----2D----2D----2D----2D----2D----2D----2D
  The code is running with the 2D cutoff
  Please refer to:
  Sohier, T., Calandra, M., & Mauri, F. (2017), 
  Density functional perturbation theory for gated two-dimensional heterostructures:
  Theoretical developments and application to flexural phonons in graphene.
  Physical Review B, 96(7), 75448. https://doi.org/10.1103/PhysRevB.96.075448
 ----2D----2D----2D----2D----2D----2D----2D----2D----2D----2D----2D----2D

     The potential is recalculated from file :
     ./tmp/MoS2.save/charge-density

     Starting wfcs are   18 randomized atomic wfcs +  182 random wfcs

     Band Structure Calculation
     Davidson diagonalization with overlap

     Computing kpt #:     1  of     1 on this pool
     total cpu time spent up to now is       22.9 secs

     ethr =  1.00E-13,  avg # of iterations = 62.6

     total cpu time spent up to now is       26.1 secs

     End of band structure calculation

          k = 0.0000 0.0000 0.0000 ( 14855 PWs)   bands (ev):

   -66.6805 -40.8879 -40.6208 -40.6208 -20.1892 -18.8271 -11.7363  -8.5817
    -8.5817  -7.8097  -7.4236  -7.4236  -6.0357  -3.0685  -3.0685  -2.7946
    -2.7946  -0.3344  -0.1588   0.4729   2.1874   2.3424   3.1576   4.8594
     4.8594   5.3489   6.0029   6.8770   6.8770   7.1778   9.4676  10.1151
    10.2003  10.2003  10.5316  10.5316  10.6419  12.3453  13.9784  14.2331
    15.2592  16.2674  17.2825  17.2825  18.9017  18.9017  18.9107  19.2030
    19.6171  19.6171  19.6242  19.7511  19.7678  19.7678  20.2900  20.3338
    20.6186  20.6186  21.5391  21.5391  21.7491  21.9392  21.9647  21.9647
    22.2762  22.2762  22.3000  22.7266  22.7266  22.9137  23.7426  24.1821
    24.4545  24.4545  24.4607  24.4607  24.7597  25.1711  25.5672  25.5672
    25.6938  25.6938  25.7809  26.7423  27.3468  27.3468  27.8601  27.8601
    27.9226  28.6944  28.7746  29.0226  29.0226  29.6761  29.6761  30.1006
    30.1112  30.9239  30.9239  31.1186  31.4962  31.4962  31.6170  31.6170
    31.7935  32.3259  33.2685  33.3581  33.9070  33.9070  33.9297  33.9297
    34.6404  34.7032  35.5715  35.5715  35.6214  35.6214  36.2110  36.7707
    36.7707  37.0564  37.3843  37.4576  37.4576  37.8482  38.2872  38.6819
    38.6819  38.8306  38.8306  38.9655  39.8766  39.8766  40.7075  40.9206
    40.9206  41.6148  41.6148  41.6996  41.7962  41.9435  41.9435  42.2941
    42.6752  42.8065  42.8065  44.7632  44.8058  44.9433  44.9433  45.6302
    45.7252  45.7252  46.4322  46.4322  46.7172  46.8700  47.4134  47.4220
    47.4220  48.5702  48.7756  49.1370  49.1370  50.2041  50.2041  50.8885
    50.8885  50.9627  51.6367  52.1956  52.2354  52.2355  52.5184  52.5184
    52.9490  52.9490  53.3026  53.9804  53.9804  54.2079  54.2142  55.0797
    55.4149  55.6653  55.8666  55.8666  57.0067  57.0067  57.6628  57.6849
    57.6849  58.0545  58.0545  58.8612  58.8913  59.0352  59.0753  59.1004

     occupation numbers 
     1.0000   1.0000   1.0000   1.0000   1.0000   1.0000   1.0000   1.0000
     1.0000   1.0000   1.0000   1.0000   1.0000   0.0000   0.0000   0.0000
     0.0000   0.0000   0.0000   0.0000   0.0000   0.0000   0.0000   0.0000
     0.0000   0.0000   0.0000   0.0000   0.0000   0.0000   0.0000   0.0000
     0.0000   0.0000   0.0000   0.0000   0.0000   0.0000   0.0000   0.0000
     0.0000   0.0000   0.0000   0.0000   0.0000   0.0000   0.0000   0.0000
     0.0000   0.0000   0.0000   0.0000   0.0000   0.0000   0.0000   0.0000
     0.0000   0.0000   0.0000   0.0000   0.0000   0.0000   0.0000   0.0000
     0.0000   0.0000   0.0000   0.0000   0.0000   0.0000   0.0000   0.0000
     0.0000   0.0000   0.0000   0.0000   0.0000   0.0000   0.0000   0.0000
     0.0000   0.0000   0.0000   0.0000   0.0000   0.0000   0.0000   0.0000
     0.0000   0.0000   0.0000   0.0000   0.0000   0.0000   0.0000   0.0000
     0.0000   0.0000   0.0000   0.0000   0.0000   0.0000   0.0000   0.0000
     0.0000   0.0000   0.0000   0.0000   0.0000   0.0000   0.0000   0.0000
     0.0000   0.0000   0.0000   0.0000   0.0000   0.0000   0.0000   0.0000
     0.0000   0.0000   0.0000   0.0000   0.0000   0.0000   0.0000   0.0000
     0.0000   0.0000   0.0000   0.0000   0.0000   0.0000   0.0000   0.0000
     0.0000   0.0000   0.0000   0.0000   0.0000   0.0000   0.0000   0.0000
     0.0000   0.0000   0.0000   0.0000   0.0000   0.0000   0.0000   0.0000
     0.0000   0.0000   0.0000   0.0000   0.0000   0.0000   0.0000   0.0000
     0.0000   0.0000   0.0000   0.0000   0.0000   0.0000   0.0000   0.0000
     0.0000   0.0000   0.0000   0.0000   0.0000   0.0000   0.0000   0.0000
     0.0000   0.0000   0.0000   0.0000   0.0000   0.0000   0.0000   0.0000
     0.0000   0.0000   0.0000   0.0000   0.0000   0.0000   0.0000   0.0000
     0.0000   0.0000   0.0000   0.0000   0.0000   0.0000   0.0000   0.0000

          k = 0.0000 0.0642 0.0000 ( 14853 PWs)   bands (ev):

   -66.6792 -40.8853 -40.6343 -40.6239 -20.1402 -18.8071 -11.6805  -8.6925
    -8.5302  -8.0796  -7.5035  -7.2244  -6.0528  -3.1453  -2.9808  -2.9463
    -2.8523  -0.2392  -0.0972   0.6861   2.2496   2.3996   3.3834   4.6526
     5.0136   5.4972   6.0276   6.5135   6.8921   7.1492   9.4650   9.7973
    10.2886  10.3621  10.3990  10.5464  11.0078  12.5048  14.2853  14.4241
    15.3233  16.1841  17.0979  17.3283  17.4181  18.0005  18.3572  18.6654
    18.9963  19.2121  19.4051  19.5215  19.8405  20.2188  20.2402  20.7058
    20.8113  20.9116  21.1239  21.1261  21.4780  21.5988  21.9321  22.1606
    22.8418  22.8857  22.9195  23.1091  23.2734  23.4736  23.8502  23.8515
    24.1257  24.1789  24.3233  24.6343  24.9212  24.9425  25.4994  26.0798
    26.1238  26.1290  26.5941  26.8863  27.0483  27.1235  27.7109  27.7463
    28.2218  28.7452  28.9743  29.2777  29.4310  29.4355  29.7532  30.1614
    30.2412  30.2482  30.6977  31.0166  31.4195  31.6260  31.6291  31.9284
    32.4746  32.5132  33.0841  33.4286  33.5020  33.7766  33.7970  33.9078
    34.6631  35.0828  35.3645  35.4145  35.4587  35.9005  35.9055  36.6230
    37.1399  37.1463  37.1825  37.2579  37.5865  37.7774  38.4331  38.6202
    38.7167  38.9630  39.1356  39.7368  39.8997  40.1177  40.5225  40.6992
    40.9450  41.2960  41.4847  41.6465  42.1080  42.2369  42.6228  42.7965
    43.0851  43.5171  43.9658  44.0081  44.3918  44.7330  44.8759  45.4492
    45.6494  45.8023  46.2673  46.5084  46.5336  46.7645  47.3496  47.7867
    48.2084  48.2789  48.8092  49.1475  49.4808  49.5044  49.8007  50.4345
    50.7339  50.7786  51.3277  51.8770  51.9985  52.3731  52.4358  52.5129
    53.1686  53.4169  53.7554  53.8115  53.8352  54.3580  54.7087  55.0262
    55.0286  55.2833  55.7923  56.0723  56.4215  56.8276  56.9842  57.0288
    57.0512  57.7133  58.0201  58.1102  58.2443  58.3244  58.4508  58.6594

     occupation numbers 
     1.0000   1.0000   1.0000   1.0000   1.0000   1.0000   1.0000   1.0000
     1.0000   1.0000   1.0000   1.0000   1.0000   0.0000   0.0000   0.0000
     0.0000   0.0000   0.0000   0.0000   0.0000   0.0000   0.0000   0.0000
     0.0000   0.0000   0.0000   0.0000   0.0000   0.0000   0.0000   0.0000
     0.0000   0.0000   0.0000   0.0000   0.0000   0.0000   0.0000   0.0000
     0.0000   0.0000   0.0000   0.0000   0.0000   0.0000   0.0000   0.0000
     0.0000   0.0000   0.0000   0.0000   0.0000   0.0000   0.0000   0.0000
     0.0000   0.0000   0.0000   0.0000   0.0000   0.0000   0.0000   0.0000
     0.0000   0.0000   0.0000   0.0000   0.0000   0.0000   0.0000   0.0000
     0.0000   0.0000   0.0000   0.0000   0.0000   0.0000   0.0000   0.0000
     0.0000   0.0000   0.0000   0.0000   0.0000   0.0000   0.0000   0.0000
     0.0000   0.0000   0.0000   0.0000   0.0000   0.0000   0.0000   0.0000
     0.0000   0.0000   0.0000   0.0000   0.0000   0.0000   0.0000   0.0000
     0.0000   0.0000   0.0000   0.0000   0.0000   0.0000   0.0000   0.0000
     0.0000   0.0000   0.0000   0.0000   0.0000   0.0000   0.0000   0.0000
     0.0000   0.0000   0.0000   0.0000   0.0000   0.0000   0.0000   0.0000
     0.0000   0.0000   0.0000   0.0000   0.0000   0.0000   0.0000   0.0000
     0.0000   0.0000   0.0000   0.0000   0.0000   0.0000   0.0000   0.0000
     0.0000   0.0000   0.0000   0.0000   0.0000   0.0000   0.0000   0.0000
     0.0000   0.0000   0.0000   0.0000   0.0000   0.0000   0.0000   0.0000
     0.0000   0.0000   0.0000   0.0000   0.0000   0.0000   0.0000   0.0000
     0.0000   0.0000   0.0000   0.0000   0.0000   0.0000   0.0000   0.0000
     0.0000   0.0000   0.0000   0.0000   0.0000   0.0000   0.0000   0.0000
     0.0000   0.0000   0.0000   0.0000   0.0000   0.0000   0.0000   0.0000
     0.0000   0.0000   0.0000   0.0000   0.0000   0.0000   0.0000   0.0000

          k = 0.0000 0.1283 0.0000 ( 14827 PWs)   bands (ev):

   -66.6752 -40.8776 -40.6729 -40.6326 -19.9964 -18.7484 -11.5235  -8.9854
    -8.5059  -8.3804  -7.7157  -7.0359  -6.1242  -3.2845  -3.2754  -3.0057
    -2.7504  -0.0161   0.0850   1.2682   2.4322   2.5661   3.9245   4.2867
     5.4524   5.6568   5.7325   6.2994   6.9588   6.9984   9.0924   9.4112
     9.9069  10.5286  10.6552  10.7300  12.0416  12.9507  14.4101  15.2948
    15.4708  15.6518  15.7099  16.3292  17.2275  17.4381  17.4872  17.6133
    18.1100  18.3287  18.4278  18.7911  19.6890  19.8260  19.9272  19.9773
    20.0026  20.7081  21.2203  21.3291  21.5786  21.9670  22.1610  22.4974
    22.8481  23.1692  23.2069  23.2927  23.8353  24.0828  24.2677  24.2801
    24.4251  24.6595  24.8547  24.9365  25.3043  25.4665  25.7189  26.1009
    26.4020  26.4208  26.9646  27.3095  27.6755  27.7430  27.7458  27.8941
    28.4214  28.7580  29.0357  29.1116  29.5331  29.5457  29.7449  29.7912
    30.3027  30.4653  30.9988  31.1853  31.4264  31.4969  31.6868  31.9728
    32.4817  32.8502  33.1674  33.2232  33.4658  33.9457  34.1464  34.2075
    34.6402  35.0009  35.1247  35.2671  35.3987  35.4760  36.4200  36.4586
    37.0060  37.2200  37.5628  37.5732  37.9161  38.2532  38.5222  38.5849
    38.7665  39.1782  39.6429  39.7577  40.5254  40.5692  40.7371  40.8460
    41.1350  41.8869  42.0625  42.2172  42.4869  42.7533  42.9862  43.2546
    43.3685  43.9632  44.0820  44.1551  44.1668  44.7499  45.0910  45.3047
    45.7933  45.8657  46.0191  46.5040  46.6351  46.8991  47.3293  47.5078
    48.0907  48.2160  48.4746  49.1628  49.4505  49.4616  50.0599  50.1718
    50.4628  50.6519  51.1195  51.5006  51.7501  51.9178  52.0792  52.3415
    53.1166  53.2020  53.2554  53.2907  53.8578  54.2626  54.3410  54.8035
    54.8050  54.9810  55.1380  55.3794  55.3867  55.6704  55.9328  56.1946
    56.3044  56.4781  56.9931  57.0257  57.0921  57.0931  57.6706  57.7692

     occupation numbers 
     1.0000   1.0000   1.0000   1.0000   1.0000   1.0000   1.0000   1.0000
     1.0000   1.0000   1.0000   1.0000   1.0000   0.0000   0.0000   0.0000
     0.0000   0.0000   0.0000   0.0000   0.0000   0.0000   0.0000   0.0000
     0.0000   0.0000   0.0000   0.0000   0.0000   0.0000   0.0000   0.0000
     0.0000   0.0000   0.0000   0.0000   0.0000   0.0000   0.0000   0.0000
     0.0000   0.0000   0.0000   0.0000   0.0000   0.0000   0.0000   0.0000
     0.0000   0.0000   0.0000   0.0000   0.0000   0.0000   0.0000   0.0000
     0.0000   0.0000   0.0000   0.0000   0.0000   0.0000   0.0000   0.0000
     0.0000   0.0000   0.0000   0.0000   0.0000   0.0000   0.0000   0.0000
     0.0000   0.0000   0.0000   0.0000   0.0000   0.0000   0.0000   0.0000
     0.0000   0.0000   0.0000   0.0000   0.0000   0.0000   0.0000   0.0000
     0.0000   0.0000   0.0000   0.0000   0.0000   0.0000   0.0000   0.0000
     0.0000   0.0000   0.0000   0.0000   0.0000   0.0000   0.0000   0.0000
     0.0000   0.0000   0.0000   0.0000   0.0000   0.0000   0.0000   0.0000
     0.0000   0.0000   0.0000   0.0000   0.0000   0.0000   0.0000   0.0000
     0.0000   0.0000   0.0000   0.0000   0.0000   0.0000   0.0000   0.0000
     0.0000   0.0000   0.0000   0.0000   0.0000   0.0000   0.0000   0.0000
     0.0000   0.0000   0.0000   0.0000   0.0000   0.0000   0.0000   0.0000
     0.0000   0.0000   0.0000   0.0000   0.0000   0.0000   0.0000   0.0000
     0.0000   0.0000   0.0000   0.0000   0.0000   0.0000   0.0000   0.0000
     0.0000   0.0000   0.0000   0.0000   0.0000   0.0000   0.0000   0.0000
     0.0000   0.0000   0.0000   0.0000   0.0000   0.0000   0.0000   0.0000
     0.0000   0.0000   0.0000   0.0000   0.0000   0.0000   0.0000   0.0000
     0.0000   0.0000   0.0000   0.0000   0.0000   0.0000   0.0000   0.0000
     0.0000   0.0000   0.0000   0.0000   0.0000   0.0000   0.0000   0.0000

          k = 0.0000 0.1925 0.0000 ( 14809 PWs)   bands (ev):

   -66.6692 -40.8659 -40.7315 -40.6459 -19.7678 -18.6552 -11.3047  -9.3655
    -8.9572  -8.1468  -8.0019  -7.0280  -6.2972  -3.6005  -3.2815  -3.2075
    -2.4493   0.2842   0.3799   1.9845   2.7704   2.8177   3.9393   4.1569
     5.4135   5.9198   6.1086   6.4959   6.7276   7.1240   8.4831   9.2380
     9.2836  10.8596  10.9574  11.0863  13.2632  13.5451  13.7854  13.8284
    14.9914  15.6870  15.9389  16.2473  16.3559  16.4057  16.8254  16.9547
    17.2523  17.6452  18.0938  18.5049  18.8183  19.2792  19.3049  19.4751
    19.9773  20.1201  20.1686  20.5348  21.8839  22.0221  22.1077  22.4159
    23.1574  23.3622  23.3742  23.9080  23.9412  24.2542  24.4244  24.5621
    24.9420  25.3274  25.3408  25.4728  26.0450  26.1104  26.1523  26.1651
    26.7636  27.0174  27.2930  27.5758  27.7641  27.9009  28.0945  28.7016
    28.8015  28.8101  29.0902  29.3049  29.3838  29.6232  29.6775  30.0856
    30.4740  30.5401  31.1056  31.5059  31.5605  31.8951  31.9207  32.0347
    32.5470  33.1539  33.3582  33.4033  33.5248  33.8635  34.3297  34.8164
    34.8348  34.9634  35.0852  35.4890  35.9495  36.3662  36.7096  36.7683
    37.2018  37.2126  37.4015  37.6874  38.0749  38.7964  38.8768  39.2070
    39.3236  39.4975  40.0677  40.1622  40.9783  41.1388  41.1411  41.4815
    41.6305  41.7386  42.1209  42.1414  42.4628  43.0169  43.0857  43.2915
    43.8540  43.8799  44.0337  44.7600  44.8182  44.9007  45.3399  45.3458
    45.9194  45.9971  46.1283  46.5656  46.8330  47.0610  47.2965  47.4088
    48.0334  48.1382  48.6399  48.9175  49.2023  49.6751  50.2668  50.3102
    50.3154  50.6032  50.8158  50.8880  50.9752  51.2911  51.4887  51.5719
    52.0599  52.1493  52.5690  52.9004  53.0913  53.1615  53.2390  53.3974
    53.4318  54.2072  54.2437  54.6756  55.1430  55.2001  55.2869  55.4024
    55.5976  55.8638  56.2685  56.4289  56.6492  56.6889  56.7717  57.2469

     occupation numbers 
     1.0000   1.0000   1.0000   1.0000   1.0000   1.0000   1.0000   1.0000
     1.0000   1.0000   1.0000   1.0000   1.0000   0.0000   0.0000   0.0000
     0.0000   0.0000   0.0000   0.0000   0.0000   0.0000   0.0000   0.0000
     0.0000   0.0000   0.0000   0.0000   0.0000   0.0000   0.0000   0.0000
     0.0000   0.0000   0.0000   0.0000   0.0000   0.0000   0.0000   0.0000
     0.0000   0.0000   0.0000   0.0000   0.0000   0.0000   0.0000   0.0000
     0.0000   0.0000   0.0000   0.0000   0.0000   0.0000   0.0000   0.0000
     0.0000   0.0000   0.0000   0.0000   0.0000   0.0000   0.0000   0.0000
     0.0000   0.0000   0.0000   0.0000   0.0000   0.0000   0.0000   0.0000
     0.0000   0.0000   0.0000   0.0000   0.0000   0.0000   0.0000   0.0000
     0.0000   0.0000   0.0000   0.0000   0.0000   0.0000   0.0000   0.0000
     0.0000   0.0000   0.0000   0.0000   0.0000   0.0000   0.0000   0.0000
     0.0000   0.0000   0.0000   0.0000   0.0000   0.0000   0.0000   0.0000
     0.0000   0.0000   0.0000   0.0000   0.0000   0.0000   0.0000   0.0000
     0.0000   0.0000   0.0000   0.0000   0.0000   0.0000   0.0000   0.0000
     0.0000   0.0000   0.0000   0.0000   0.0000   0.0000   0.0000   0.0000
     0.0000   0.0000   0.0000   0.0000   0.0000   0.0000   0.0000   0.0000
     0.0000   0.0000   0.0000   0.0000   0.0000   0.0000   0.0000   0.0000
     0.0000   0.0000   0.0000   0.0000   0.0000   0.0000   0.0000   0.0000
     0.0000   0.0000   0.0000   0.0000   0.0000   0.0000   0.0000   0.0000
     0.0000   0.0000   0.0000   0.0000   0.0000   0.0000   0.0000   0.0000
     0.0000   0.0000   0.0000   0.0000   0.0000   0.0000   0.0000   0.0000
     0.0000   0.0000   0.0000   0.0000   0.0000   0.0000   0.0000   0.0000
     0.0000   0.0000   0.0000   0.0000   0.0000   0.0000   0.0000   0.0000
     0.0000   0.0000   0.0000   0.0000   0.0000   0.0000   0.0000   0.0000

          k = 0.0000 0.2566 0.0000 ( 14773 PWs)   bands (ev):

   -66.6619 -40.8515 -40.8027 -40.6622 -19.4712 -18.5349 -11.1196  -9.7064
    -9.4143  -8.3072  -7.8550  -7.1842  -6.5805  -3.7514  -3.4047  -3.0967
    -2.1474   0.6487   0.7711   2.4064   3.0156   3.3206   3.7151   3.7690
     5.8748   5.9916   6.5823   6.7354   6.8350   7.4284   8.3158   8.6692
     9.0239  11.2123  11.3893  11.4864  12.1110  12.1944  14.1066  14.2405
    14.4296  14.8908  15.3549  15.8429  16.0138  16.4120  16.4165  16.7750
    17.1479  17.5805  17.6464  17.9424  18.0831  18.5392  18.7676  19.3335
    19.4664  19.5002  20.4304  20.7266  21.0360  21.5483  21.7841  21.9502
    22.8568  23.0566  24.0495  24.1507  24.1787  24.5389  24.6662  24.9372
    25.0948  25.1122  25.2245  25.2464  26.2128  26.4964  26.5538  26.7064
    26.8325  27.6664  27.6820  27.6982  27.7537  28.1849  28.4087  28.7375
    28.9330  29.1314  29.4924  29.5911  29.5959  30.1981  30.4344  30.7406
    31.2510  31.2654  31.5379  31.7023  32.0411  32.0798  32.2462  32.5033
    32.9288  33.1703  33.4820  33.5079  34.1501  34.4030  34.6185  35.0572
    35.3673  35.4510  35.4954  35.7891  36.6733  36.9447  37.0415  37.1356
    37.4623  37.7246  38.0426  38.2454  38.7932  38.8732  39.0509  39.2122
    39.5710  39.6395  40.0760  40.5508  41.1967  41.4698  41.5303  41.6347
    41.6582  41.9982  42.3300  42.7242  42.8936  43.0806  43.2068  43.4695
    43.6685  43.7028  44.4768  44.9820  45.0641  45.1718  45.4790  45.7918
    45.8028  45.9082  46.3588  46.5952  47.2732  47.3409  47.3878  47.6375
    47.7135  48.3638  48.3888  48.4908  48.8823  49.0153  49.0448  49.1877
    49.5051  50.2039  50.2243  50.3390  50.4160  50.7730  51.2008  51.2484
    51.4282  51.5488  51.6628  51.8868  52.2539  52.3105  52.3179  52.6511
    53.2097  53.7637  53.8200  54.2209  54.2262  54.4669  54.5684  55.2371
    55.4529  55.7311  55.8505  56.3006  56.3121  56.5421  56.5658  56.6942

     occupation numbers 
     1.0000   1.0000   1.0000   1.0000   1.0000   1.0000   1.0000   1.0000
     1.0000   1.0000   1.0000   1.0000   1.0000   0.0000   0.0000   0.0000
     0.0000   0.0000   0.0000   0.0000   0.0000   0.0000   0.0000   0.0000
     0.0000   0.0000   0.0000   0.0000   0.0000   0.0000   0.0000   0.0000
     0.0000   0.0000   0.0000   0.0000   0.0000   0.0000   0.0000   0.0000
     0.0000   0.0000   0.0000   0.0000   0.0000   0.0000   0.0000   0.0000
     0.0000   0.0000   0.0000   0.0000   0.0000   0.0000   0.0000   0.0000
     0.0000   0.0000   0.0000   0.0000   0.0000   0.0000   0.0000   0.0000
     0.0000   0.0000   0.0000   0.0000   0.0000   0.0000   0.0000   0.0000
     0.0000   0.0000   0.0000   0.0000   0.0000   0.0000   0.0000   0.0000
     0.0000   0.0000   0.0000   0.0000   0.0000   0.0000   0.0000   0.0000
     0.0000   0.0000   0.0000   0.0000   0.0000   0.0000   0.0000   0.0000
     0.0000   0.0000   0.0000   0.0000   0.0000   0.0000   0.0000   0.0000
     0.0000   0.0000   0.0000   0.0000   0.0000   0.0000   0.0000   0.0000
     0.0000   0.0000   0.0000   0.0000   0.0000   0.0000   0.0000   0.0000
     0.0000   0.0000   0.0000   0.0000   0.0000   0.0000   0.0000   0.0000
     0.0000   0.0000   0.0000   0.0000   0.0000   0.0000   0.0000   0.0000
     0.0000   0.0000   0.0000   0.0000   0.0000   0.0000   0.0000   0.0000
     0.0000   0.0000   0.0000   0.0000   0.0000   0.0000   0.0000   0.0000
     0.0000   0.0000   0.0000   0.0000   0.0000   0.0000   0.0000   0.0000
     0.0000   0.0000   0.0000   0.0000   0.0000   0.0000   0.0000   0.0000
     0.0000   0.0000   0.0000   0.0000   0.0000   0.0000   0.0000   0.0000
     0.0000   0.0000   0.0000   0.0000   0.0000   0.0000   0.0000   0.0000
     0.0000   0.0000   0.0000   0.0000   0.0000   0.0000   0.0000   0.0000
     0.0000   0.0000   0.0000   0.0000   0.0000   0.0000   0.0000   0.0000

          k = 0.0000 0.3208 0.0000 ( 14795 PWs)   bands (ev):

   -66.6540 -40.8776 -40.8361 -40.6795 -19.1312 -18.3985 -11.1287  -9.8728
    -9.8618  -8.5928  -7.5418  -7.4074  -6.8672  -3.7202  -3.5530  -2.7870
    -1.8914   1.0528   1.2175   2.4282   2.7688   3.2487   3.8862   4.1170
     5.8604   6.2739   6.5884   7.0639   7.2615   7.8824   8.6416   8.7739
     8.9782  10.5654  10.6149  11.5293  11.9309  12.0736  12.8829  13.0273
    14.6653  14.7617  15.2751  15.3222  15.9881  16.0410  16.4151  16.4816
    16.9562  17.2889  17.5159  17.7084  17.8252  18.3513  18.3896  19.2312
    19.3689  19.5941  20.0254  20.5252  21.2247  21.4327  21.5340  21.6345
    22.3075  22.3583  23.3246  23.6815  23.7704  24.0354  24.5484  24.6046
    25.0731  25.1850  25.3608  25.9413  26.1431  26.7118  26.9316  26.9710
    27.0599  27.4789  27.5825  28.2156  28.2233  28.4441  28.4682  29.0323
    29.5652  29.5910  30.0997  30.1438  30.2873  31.0735  31.1883  31.2549
    31.5834  32.0228  32.0251  32.0567  32.1740  32.4992  33.3781  33.4109
    33.5452  33.7868  33.8441  34.2234  34.7142  34.8555  35.1192  35.1270
    35.5097  36.1458  36.1635  36.9119  36.9184  37.1723  37.3812  37.3892
    37.8893  38.0607  38.0681  38.2293  38.8347  39.1479  39.5162  39.5557
    39.6424  40.5358  40.6387  40.8899  41.2909  41.3429  41.6629  41.7242
    41.7808  42.3691  42.5604  42.9746  43.3421  43.3933  43.6062  43.7630
    43.9483  44.0839  44.0889  44.2634  45.1418  45.3637  45.6031  45.6356
    45.7284  45.8724  46.1769  46.4978  46.6679  46.7315  46.7917  47.1262
    47.5781  47.8556  48.1045  48.3599  48.3754  48.3915  48.6931  49.0698
    49.0927  49.4052  49.4417  49.5108  50.2046  50.2288  50.3688  50.5996
    50.7510  51.5199  51.6252  51.9368  51.9743  52.4418  52.6048  52.7325
    53.1655  53.3473  53.4787  53.5425  53.8658  54.3223  54.7283  54.7683
    55.2445  55.5393  55.5847  55.7103  55.8319  56.2199  56.2488  56.8204

     occupation numbers 
     1.0000   1.0000   1.0000   1.0000   1.0000   1.0000   1.0000   1.0000
     1.0000   1.0000   1.0000   1.0000   1.0000   0.0000   0.0000   0.0000
     0.0000   0.0000   0.0000   0.0000   0.0000   0.0000   0.0000   0.0000
     0.0000   0.0000   0.0000   0.0000   0.0000   0.0000   0.0000   0.0000
     0.0000   0.0000   0.0000   0.0000   0.0000   0.0000   0.0000   0.0000
     0.0000   0.0000   0.0000   0.0000   0.0000   0.0000   0.0000   0.0000
     0.0000   0.0000   0.0000   0.0000   0.0000   0.0000   0.0000   0.0000
     0.0000   0.0000   0.0000   0.0000   0.0000   0.0000   0.0000   0.0000
     0.0000   0.0000   0.0000   0.0000   0.0000   0.0000   0.0000   0.0000
     0.0000   0.0000   0.0000   0.0000   0.0000   0.0000   0.0000   0.0000
     0.0000   0.0000   0.0000   0.0000   0.0000   0.0000   0.0000   0.0000
     0.0000   0.0000   0.0000   0.0000   0.0000   0.0000   0.0000   0.0000
     0.0000   0.0000   0.0000   0.0000   0.0000   0.0000   0.0000   0.0000
     0.0000   0.0000   0.0000   0.0000   0.0000   0.0000   0.0000   0.0000
     0.0000   0.0000   0.0000   0.0000   0.0000   0.0000   0.0000   0.0000
     0.0000   0.0000   0.0000   0.0000   0.0000   0.0000   0.0000   0.0000
     0.0000   0.0000   0.0000   0.0000   0.0000   0.0000   0.0000   0.0000
     0.0000   0.0000   0.0000   0.0000   0.0000   0.0000   0.0000   0.0000
     0.0000   0.0000   0.0000   0.0000   0.0000   0.0000   0.0000   0.0000
     0.0000   0.0000   0.0000   0.0000   0.0000   0.0000   0.0000   0.0000
     0.0000   0.0000   0.0000   0.0000   0.0000   0.0000   0.0000   0.0000
     0.0000   0.0000   0.0000   0.0000   0.0000   0.0000   0.0000   0.0000
     0.0000   0.0000   0.0000   0.0000   0.0000   0.0000   0.0000   0.0000
     0.0000   0.0000   0.0000   0.0000   0.0000   0.0000   0.0000   0.0000
     0.0000   0.0000   0.0000   0.0000   0.0000   0.0000   0.0000   0.0000

          k = 0.0000 0.3849 0.0000 ( 14740 PWs)   bands (ev):

   -66.6466 -40.9473 -40.8216 -40.6957 -18.7820 -18.2611 -11.3513 -10.2724
    -9.9110  -8.8338  -7.6129  -7.2520  -6.9904  -3.6249  -3.5654  -2.4591
    -1.7013   1.4227   1.5913   1.9758   2.5696   3.2303   4.2262   4.5469
     5.6377   6.2102   6.5418   7.2399   7.8117   8.4505   9.0662   9.1730
     9.4508   9.5026   9.7909  11.5276  11.6286  11.7789  12.4935  12.8078
    13.8647  14.5309  14.6813  15.4480  15.5442  15.6718  15.9032  16.4684
    16.7841  16.8814  17.1461  17.8757  18.0547  18.6515  18.6708  18.9481
    19.3764  19.6026  19.7995  20.3984  21.0490  21.1655  21.2632  21.3216
    22.1789  22.3378  22.4600  22.6580  23.3045  23.3394  23.8754  24.6684
    25.0089  25.4504  25.4950  25.5061  26.2839  26.7378  26.8613  27.3352
    27.5418  27.5664  27.8222  28.5612  28.7949  28.8746  29.3643  29.4219
    29.5592  30.3283  30.8128  30.9476  31.1665  31.1913  31.2314  31.9125
    32.1458  32.1730  32.3395  32.6440  32.7938  32.8937  33.9533  33.9655
    34.0416  34.3030  34.5627  34.8302  35.4343  35.4494  35.7624  35.9213
    35.9330  36.3163  36.3220  36.9262  37.3705  37.4948  37.5430  37.7285
    37.9242  38.6798  38.9140  39.2502  39.2814  39.3532  39.6861  39.8763
    40.1938  40.3236  40.8153  41.1541  41.3346  41.4412  41.8199  41.9126
    42.0847  42.5187  42.7444  43.0466  43.0542  43.0841  43.1961  43.6406
    43.7812  43.9609  44.0573  44.1787  44.6011  44.7486  44.9011  45.1945
    45.7459  45.8874  46.1486  46.2677  46.3335  46.6269  46.7588  46.9789
    47.1667  47.5779  47.7165  47.8731  48.0155  48.3816  48.5244  49.3650
    49.3807  49.4399  49.5137  49.6305  49.7680  49.9901  50.1461  50.2674
    50.5042  51.0945  51.7849  51.7924  51.9455  52.2148  52.4692  53.2625
    53.3328  53.4946  53.6682  53.8264  53.8533  54.4067  54.4492  54.4523
    54.5715  54.8378  54.8811  55.5119  55.6062  55.6294  55.7375  56.2114

     occupation numbers 
     1.0000   1.0000   1.0000   1.0000   1.0000   1.0000   1.0000   1.0000
     1.0000   1.0000   1.0000   1.0000   1.0000   0.0000   0.0000   0.0000
     0.0000   0.0000   0.0000   0.0000   0.0000   0.0000   0.0000   0.0000
     0.0000   0.0000   0.0000   0.0000   0.0000   0.0000   0.0000   0.0000
     0.0000   0.0000   0.0000   0.0000   0.0000   0.0000   0.0000   0.0000
     0.0000   0.0000   0.0000   0.0000   0.0000   0.0000   0.0000   0.0000
     0.0000   0.0000   0.0000   0.0000   0.0000   0.0000   0.0000   0.0000
     0.0000   0.0000   0.0000   0.0000   0.0000   0.0000   0.0000   0.0000
     0.0000   0.0000   0.0000   0.0000   0.0000   0.0000   0.0000   0.0000
     0.0000   0.0000   0.0000   0.0000   0.0000   0.0000   0.0000   0.0000
     0.0000   0.0000   0.0000   0.0000   0.0000   0.0000   0.0000   0.0000
     0.0000   0.0000   0.0000   0.0000   0.0000   0.0000   0.0000   0.0000
     0.0000   0.0000   0.0000   0.0000   0.0000   0.0000   0.0000   0.0000
     0.0000   0.0000   0.0000   0.0000   0.0000   0.0000   0.0000   0.0000
     0.0000   0.0000   0.0000   0.0000   0.0000   0.0000   0.0000   0.0000
     0.0000   0.0000   0.0000   0.0000   0.0000   0.0000   0.0000   0.0000
     0.0000   0.0000   0.0000   0.0000   0.0000   0.0000   0.0000   0.0000
     0.0000   0.0000   0.0000   0.0000   0.0000   0.0000   0.0000   0.0000
     0.0000   0.0000   0.0000   0.0000   0.0000   0.0000   0.0000   0.0000
     0.0000   0.0000   0.0000   0.0000   0.0000   0.0000   0.0000   0.0000
     0.0000   0.0000   0.0000   0.0000   0.0000   0.0000   0.0000   0.0000
     0.0000   0.0000   0.0000   0.0000   0.0000   0.0000   0.0000   0.0000
     0.0000   0.0000   0.0000   0.0000   0.0000   0.0000   0.0000   0.0000
     0.0000   0.0000   0.0000   0.0000   0.0000   0.0000   0.0000   0.0000
     0.0000   0.0000   0.0000   0.0000   0.0000   0.0000   0.0000   0.0000

          k = 0.0000 0.4491 0.0000 ( 14694 PWs)   bands (ev):

   -66.6405 -41.0035 -40.8097 -40.7089 -18.4690 -18.1413 -11.6260 -10.6080
    -9.9848  -9.0148  -7.7629  -7.0268  -6.8929  -3.6219  -3.3512  -2.2021
    -1.5770   1.0984   1.7292   1.9121   2.7879   3.5295   4.3674   4.7048
     5.7047   5.9466   6.2236   7.4137   7.6678   8.6743   8.8131   9.0410
     9.7128  10.2511  10.3873  10.8336  11.0054  11.9598  12.7749  12.9025
    13.5973  14.0594  14.2841  14.7524  14.9128  15.4455  16.2161  16.2846
    16.4507  16.7303  16.9646  17.8625  18.0134  18.5344  18.6795  18.7222
    19.1608  19.3741  20.0626  20.2583  20.3149  20.4245  21.3259  21.3471
    21.6694  22.4037  22.5756  22.6242  22.8716  23.3899  23.4652  24.0319
    25.1083  25.5361  25.6230  25.6861  26.4301  26.8355  27.0207  27.2970
    27.5836  27.7503  27.7526  28.4273  28.5370  29.6172  30.2219  30.4414
    30.6829  30.8204  30.9547  31.1782  31.4707  31.5434  31.6330  32.0369
    32.0453  32.9142  32.9158  33.0210  33.4752  33.6865  33.9823  34.0095
    34.3745  34.6604  34.6950  35.1152  35.3090  35.7481  35.9779  36.0643
    36.4148  36.6479  37.5127  37.8676  37.9137  37.9228  38.1590  38.1726
    38.3577  38.6883  38.8378  39.4441  39.5565  39.9426  40.1585  40.2245
    40.4290  40.5942  40.6165  40.7527  41.2138  41.5064  41.5871  41.6297
    42.1140  42.1859  42.1873  42.4828  42.5526  43.0103  43.0457  43.1904
    43.6458  43.9006  43.9161  44.4559  44.5804  44.6469  44.6672  45.5768
    45.7355  46.0671  46.0984  46.1803  46.4804  46.8745  47.0489  47.0541
    47.3033  47.5661  47.7781  47.8414  48.0270  48.4522  48.4839  48.8085
    48.8984  49.1916  49.6096  49.7178  49.9673  50.3508  50.7171  50.7242
    50.8499  51.5983  51.7456  51.7865  51.7949  51.9467  52.3260  52.4080
    52.7304  52.7475  53.1973  53.3006  53.4263  53.7472  53.8197  53.9738
    54.4884  54.7977  55.0502  55.1444  55.3957  55.4344  55.6263  55.7648

     occupation numbers 
     1.0000   1.0000   1.0000   1.0000   1.0000   1.0000   1.0000   1.0000
     1.0000   1.0000   1.0000   1.0000   1.0000   0.0000   0.0000   0.0000
     0.0000   0.0000   0.0000   0.0000   0.0000   0.0000   0.0000   0.0000
     0.0000   0.0000   0.0000   0.0000   0.0000   0.0000   0.0000   0.0000
     0.0000   0.0000   0.0000   0.0000   0.0000   0.0000   0.0000   0.0000
     0.0000   0.0000   0.0000   0.0000   0.0000   0.0000   0.0000   0.0000
     0.0000   0.0000   0.0000   0.0000   0.0000   0.0000   0.0000   0.0000
     0.0000   0.0000   0.0000   0.0000   0.0000   0.0000   0.0000   0.0000
     0.0000   0.0000   0.0000   0.0000   0.0000   0.0000   0.0000   0.0000
     0.0000   0.0000   0.0000   0.0000   0.0000   0.0000   0.0000   0.0000
     0.0000   0.0000   0.0000   0.0000   0.0000   0.0000   0.0000   0.0000
     0.0000   0.0000   0.0000   0.0000   0.0000   0.0000   0.0000   0.0000
     0.0000   0.0000   0.0000   0.0000   0.0000   0.0000   0.0000   0.0000
     0.0000   0.0000   0.0000   0.0000   0.0000   0.0000   0.0000   0.0000
     0.0000   0.0000   0.0000   0.0000   0.0000   0.0000   0.0000   0.0000
     0.0000   0.0000   0.0000   0.0000   0.0000   0.0000   0.0000   0.0000
     0.0000   0.0000   0.0000   0.0000   0.0000   0.0000   0.0000   0.0000
     0.0000   0.0000   0.0000   0.0000   0.0000   0.0000   0.0000   0.0000
     0.0000   0.0000   0.0000   0.0000   0.0000   0.0000   0.0000   0.0000
     0.0000   0.0000   0.0000   0.0000   0.0000   0.0000   0.0000   0.0000
     0.0000   0.0000   0.0000   0.0000   0.0000   0.0000   0.0000   0.0000
     0.0000   0.0000   0.0000   0.0000   0.0000   0.0000   0.0000   0.0000
     0.0000   0.0000   0.0000   0.0000   0.0000   0.0000   0.0000   0.0000
     0.0000   0.0000   0.0000   0.0000   0.0000   0.0000   0.0000   0.0000
     0.0000   0.0000   0.0000   0.0000   0.0000   0.0000   0.0000   0.0000

          k = 0.0000 0.5132 0.0000 ( 14688 PWs)   bands (ev):

   -66.6366 -41.0400 -40.8020 -40.7174 -18.2467 -18.0586 -11.8352 -10.8293
   -10.0834  -9.1267  -7.8502  -6.8896  -6.7070  -3.5815  -3.1452  -2.0570
    -1.5089   0.4714   1.8084   2.2029   3.0556   3.7989   4.4439   4.7761
     5.5193   5.9061   6.2884   6.9623   7.1007   8.5010   8.6728   9.5059
     9.8950  10.1679  10.9396  11.1124  11.5239  12.0816  12.5436  12.9075
    13.6806  13.8070  14.1079  14.2238  14.7802  15.2988  15.9728  16.2907
    16.4197  16.5389  16.7986  17.6043  17.7542  18.0536  18.4778  18.6284
    19.0745  19.2582  19.3266  19.7143  19.8594  20.6380  21.3424  21.4040
    22.0590  22.2605  22.2753  22.5847  23.0196  23.2467  23.8331  24.6182
    24.9934  25.5856  25.6924  26.1645  26.1663  26.6627  27.0616  27.2684
    27.4279  27.4429  28.0511  28.8128  28.8195  29.8110  30.1059  30.3494
    30.5905  30.9344  31.1427  31.1966  31.9451  32.0457  32.3667  32.3827
    32.8137  33.0365  33.2640  33.6788  33.9681  34.0949  34.2730  34.5146
    34.7870  34.9724  35.0619  35.1198  35.5248  35.7360  36.3176  36.4189
    36.5902  36.9388  37.3837  37.4001  37.6992  37.9731  38.0418  38.1849
    38.4695  38.9350  39.0413  39.1660  39.4210  39.4736  39.9391  39.9485
    39.9940  40.7208  40.8368  40.9983  41.0568  41.2021  41.3258  41.9237
    41.9605  42.1591  42.8391  43.0482  43.3069  43.3219  43.4168  43.4588
    43.7516  44.0898  44.1472  44.1983  44.3405  45.0378  45.1006  45.5357
    45.6984  45.7153  46.2262  46.3640  46.4516  46.9571  47.1293  47.1345
    47.2077  47.5870  47.9703  48.1070  48.4580  48.6724  48.8185  49.0278
    49.2249  49.3945  49.6735  49.7154  49.8252  49.9571  50.3605  50.3982
    50.4421  50.5361  50.6921  51.2271  51.6107  51.8796  52.1705  52.2596
    52.3516  53.1102  53.2124  53.2152  53.2508  53.4513  53.5739  53.7680
    53.9031  53.9783  54.4518  54.5121  54.7475  54.9644  55.0574  55.1404

     occupation numbers 
     1.0000   1.0000   1.0000   1.0000   1.0000   1.0000   1.0000   1.0000
     1.0000   1.0000   1.0000   1.0000   1.0000   0.0000   0.0000   0.0000
     0.0000   0.0000   0.0000   0.0000   0.0000   0.0000   0.0000   0.0000
     0.0000   0.0000   0.0000   0.0000   0.0000   0.0000   0.0000   0.0000
     0.0000   0.0000   0.0000   0.0000   0.0000   0.0000   0.0000   0.0000
     0.0000   0.0000   0.0000   0.0000   0.0000   0.0000   0.0000   0.0000
     0.0000   0.0000   0.0000   0.0000   0.0000   0.0000   0.0000   0.0000
     0.0000   0.0000   0.0000   0.0000   0.0000   0.0000   0.0000   0.0000
     0.0000   0.0000   0.0000   0.0000   0.0000   0.0000   0.0000   0.0000
     0.0000   0.0000   0.0000   0.0000   0.0000   0.0000   0.0000   0.0000
     0.0000   0.0000   0.0000   0.0000   0.0000   0.0000   0.0000   0.0000
     0.0000   0.0000   0.0000   0.0000   0.0000   0.0000   0.0000   0.0000
     0.0000   0.0000   0.0000   0.0000   0.0000   0.0000   0.0000   0.0000
     0.0000   0.0000   0.0000   0.0000   0.0000   0.0000   0.0000   0.0000
     0.0000   0.0000   0.0000   0.0000   0.0000   0.0000   0.0000   0.0000
     0.0000   0.0000   0.0000   0.0000   0.0000   0.0000   0.0000   0.0000
     0.0000   0.0000   0.0000   0.0000   0.0000   0.0000   0.0000   0.0000
     0.0000   0.0000   0.0000   0.0000   0.0000   0.0000   0.0000   0.0000
     0.0000   0.0000   0.0000   0.0000   0.0000   0.0000   0.0000   0.0000
     0.0000   0.0000   0.0000   0.0000   0.0000   0.0000   0.0000   0.0000
     0.0000   0.0000   0.0000   0.0000   0.0000   0.0000   0.0000   0.0000
     0.0000   0.0000   0.0000   0.0000   0.0000   0.0000   0.0000   0.0000
     0.0000   0.0000   0.0000   0.0000   0.0000   0.0000   0.0000   0.0000
     0.0000   0.0000   0.0000   0.0000   0.0000   0.0000   0.0000   0.0000
     0.0000   0.0000   0.0000   0.0000   0.0000   0.0000   0.0000   0.0000

          k = 0.0000-0.5774 0.0000 ( 14702 PWs)   bands (ev):

   -66.6352 -41.0526 -40.7993 -40.7204 -18.1655 -18.0290 -11.9130 -10.9067
   -10.1272  -9.1645  -7.8785  -6.8444  -6.6180  -3.5589  -3.0518  -2.0134
    -1.4875   0.2127   1.8613   2.3456   3.1116   3.7837   4.5885   5.1768
     5.3646   5.6909   5.8300   7.0293   7.4223   7.9323   8.4393   9.6851
    10.2084  10.2599  10.9437  11.3851  11.7317  12.1294  12.4639  13.0570
    13.5574  13.7224  14.0810  14.1626  14.7348  15.2447  15.9030  16.2596
    16.2624  16.7592  16.7825  17.1069  17.7185  17.7617  18.3657  18.5934
    18.8724  18.9342  19.2798  19.4229  20.3624  20.7917  21.1724  21.3437
    21.7530  22.2303  22.2329  22.4162  23.0331  23.9891  24.1110  24.6499
    25.2177  25.3906  25.7195  25.9246  26.4881  26.9032  26.9237  27.0430
    27.1030  27.5344  28.1768  28.8519  29.0633  29.7557  30.1262  30.2878
    30.3119  30.8035  31.0289  31.6512  31.8305  31.9644  32.5610  32.8881
    32.9420  32.9963  33.7829  33.9970  34.0131  34.2437  34.7872  34.9786
    35.1706  35.2446  35.4043  35.6170  35.6993  35.8326  36.1331  36.3450
    36.4258  36.7492  37.0579  37.3450  37.4045  37.7456  37.7989  38.0475
    38.2072  38.3515  38.8969  38.9219  38.9910  39.1574  39.6262  39.9225
    40.0397  40.7167  41.1922  41.2309  41.3475  41.5398  41.9703  42.1396
    42.2101  42.2574  42.6599  42.6834  43.2076  43.4161  43.5590  43.8037
    43.9742  44.1337  44.4336  44.6884  44.8189  45.1698  45.4646  45.6767
    45.7814  46.0278  46.1534  46.4762  46.5996  46.8768  47.0093  47.0777
    47.2588  47.2892  47.6906  47.8882  48.2150  48.5906  48.7233  49.0545
    49.0948  49.4522  49.5515  49.5783  49.7328  49.8421  49.8557  49.9371
    51.0173  51.0613  51.1143  51.2838  51.4709  51.6356  51.8138  51.8203
    51.9677  52.3937  52.5377  53.0051  53.0231  53.1111  53.4253  53.6576
    54.1336  54.4565  54.8106  54.8610  54.9806  55.0800  55.1179  55.1237

     occupation numbers 
     1.0000   1.0000   1.0000   1.0000   1.0000   1.0000   1.0000   1.0000
     1.0000   1.0000   1.0000   1.0000   1.0000   0.0000   0.0000   0.0000
     0.0000   0.0000   0.0000   0.0000   0.0000   0.0000   0.0000   0.0000
     0.0000   0.0000   0.0000   0.0000   0.0000   0.0000   0.0000   0.0000
     0.0000   0.0000   0.0000   0.0000   0.0000   0.0000   0.0000   0.0000
     0.0000   0.0000   0.0000   0.0000   0.0000   0.0000   0.0000   0.0000
     0.0000   0.0000   0.0000   0.0000   0.0000   0.0000   0.0000   0.0000
     0.0000   0.0000   0.0000   0.0000   0.0000   0.0000   0.0000   0.0000
     0.0000   0.0000   0.0000   0.0000   0.0000   0.0000   0.0000   0.0000
     0.0000   0.0000   0.0000   0.0000   0.0000   0.0000   0.0000   0.0000
     0.0000   0.0000   0.0000   0.0000   0.0000   0.0000   0.0000   0.0000
     0.0000   0.0000   0.0000   0.0000   0.0000   0.0000   0.0000   0.0000
     0.0000   0.0000   0.0000   0.0000   0.0000   0.0000   0.0000   0.0000
     0.0000   0.0000   0.0000   0.0000   0.0000   0.0000   0.0000   0.0000
     0.0000   0.0000   0.0000   0.0000   0.0000   0.0000   0.0000   0.0000
     0.0000   0.0000   0.0000   0.0000   0.0000   0.0000   0.0000   0.0000
     0.0000   0.0000   0.0000   0.0000   0.0000   0.0000   0.0000   0.0000
     0.0000   0.0000   0.0000   0.0000   0.0000   0.0000   0.0000   0.0000
     0.0000   0.0000   0.0000   0.0000   0.0000   0.0000   0.0000   0.0000
     0.0000   0.0000   0.0000   0.0000   0.0000   0.0000   0.0000   0.0000
     0.0000   0.0000   0.0000   0.0000   0.0000   0.0000   0.0000   0.0000
     0.0000   0.0000   0.0000   0.0000   0.0000   0.0000   0.0000   0.0000
     0.0000   0.0000   0.0000   0.0000   0.0000   0.0000   0.0000   0.0000
     0.0000   0.0000   0.0000   0.0000   0.0000   0.0000   0.0000   0.0000
     0.0000   0.0000   0.0000   0.0000   0.0000   0.0000   0.0000   0.0000

          k = 0.0556 0.0962 0.0000 ( 14837 PWs)   bands (ev):

   -66.6765 -40.8801 -40.6600 -40.6301 -20.0438 -18.7677 -11.5737  -8.8930
    -8.4307  -8.3791  -7.6777  -7.0484  -6.0969  -3.2610  -3.1836  -2.9641
    -2.8105  -0.0831   0.0249   1.0884   2.3711   2.5119   3.7741   4.4013
     5.2710   5.6867   5.8292   6.2680   6.9098   7.0658   9.3715   9.4398
     9.9960  10.3522  10.6524  10.6596  11.7460  12.8095  14.3815  15.1116
    15.4446  16.0007  16.2416  16.6824  16.8624  16.8923  17.7608  17.9447
    18.5678  18.9757  19.0613  19.2207  19.6010  19.7343  19.8728  19.9555
    20.3136  20.4350  21.5473  21.7112  21.7796  21.9236  22.2497  22.2996
    22.7602  22.8025  22.9299  23.1608  23.4132  23.5479  24.1961  24.3153
    24.7283  24.7765  24.7815  25.0020  25.2142  25.5551  25.6433  25.8737
    25.9689  26.0846  26.6536  27.1984  27.2868  27.8415  27.9507  28.1048
    28.3552  28.7923  28.9955  29.2644  29.2751  29.3454  29.7677  30.0350
    30.2133  30.2683  30.9272  31.0014  31.4932  31.6929  31.7735  31.8806
    32.7594  32.9711  32.9813  33.2565  33.3331  33.7094  33.8352  34.0586
    34.6082  34.6647  35.3324  35.3430  35.5904  35.8201  36.5130  36.5600
    36.9436  36.9887  37.2357  37.5963  37.7244  37.7871  38.6182  38.7771
    38.9380  39.1415  39.2551  39.6645  39.9028  40.7282  40.8453  41.0008
    41.1655  41.5366  42.0841  42.1701  42.3493  42.3542  42.4974  43.2585
    43.7260  43.7572  43.9856  44.0577  44.3363  44.8663  45.1916  45.2054
    45.6066  45.8725  45.9840  46.4530  46.7440  46.8118  47.3214  47.4989
    48.0612  48.2629  48.6767  49.0603  49.3961  49.4318  49.7810  50.3259
    50.6368  50.6836  51.3537  51.3764  51.9695  52.0671  52.4442  52.4756
    52.9524  53.1347  53.4768  53.5125  53.7087  54.1815  54.3419  54.8990
    55.1866  55.3211  55.3930  55.7642  55.9893  56.1679  56.2584  56.3385
    56.4723  56.5504  57.3385  57.3427  57.5210  57.6794  57.9408  58.1340

     occupation numbers 
     1.0000   1.0000   1.0000   1.0000   1.0000   1.0000   1.0000   1.0000
     1.0000   1.0000   1.0000   1.0000   1.0000   0.0000   0.0000   0.0000
     0.0000   0.0000   0.0000   0.0000   0.0000   0.0000   0.0000   0.0000
     0.0000   0.0000   0.0000   0.0000   0.0000   0.0000   0.0000   0.0000
     0.0000   0.0000   0.0000   0.0000   0.0000   0.0000   0.0000   0.0000
     0.0000   0.0000   0.0000   0.0000   0.0000   0.0000   0.0000   0.0000
     0.0000   0.0000   0.0000   0.0000   0.0000   0.0000   0.0000   0.0000
     0.0000   0.0000   0.0000   0.0000   0.0000   0.0000   0.0000   0.0000
     0.0000   0.0000   0.0000   0.0000   0.0000   0.0000   0.0000   0.0000
     0.0000   0.0000   0.0000   0.0000   0.0000   0.0000   0.0000   0.0000
     0.0000   0.0000   0.0000   0.0000   0.0000   0.0000   0.0000   0.0000
     0.0000   0.0000   0.0000   0.0000   0.0000   0.0000   0.0000   0.0000
     0.0000   0.0000   0.0000   0.0000   0.0000   0.0000   0.0000   0.0000
     0.0000   0.0000   0.0000   0.0000   0.0000   0.0000   0.0000   0.0000
     0.0000   0.0000   0.0000   0.0000   0.0000   0.0000   0.0000   0.0000
     0.0000   0.0000   0.0000   0.0000   0.0000   0.0000   0.0000   0.0000
     0.0000   0.0000   0.0000   0.0000   0.0000   0.0000   0.0000   0.0000
     0.0000   0.0000   0.0000   0.0000   0.0000   0.0000   0.0000   0.0000
     0.0000   0.0000   0.0000   0.0000   0.0000   0.0000   0.0000   0.0000
     0.0000   0.0000   0.0000   0.0000   0.0000   0.0000   0.0000   0.0000
     0.0000   0.0000   0.0000   0.0000   0.0000   0.0000   0.0000   0.0000
     0.0000   0.0000   0.0000   0.0000   0.0000   0.0000   0.0000   0.0000
     0.0000   0.0000   0.0000   0.0000   0.0000   0.0000   0.0000   0.0000
     0.0000   0.0000   0.0000   0.0000   0.0000   0.0000   0.0000   0.0000
     0.0000   0.0000   0.0000   0.0000   0.0000   0.0000   0.0000   0.0000

          k = 0.0556 0.1604 0.0000 ( 14812 PWs)   bands (ev):

   -66.6716 -40.8704 -40.7077 -40.6419 -19.8575 -18.6917 -11.3829  -9.2253
    -8.7654  -8.2445  -7.9854  -6.9346  -6.2193  -3.5003  -3.3547  -3.1483
    -2.5238   0.1756   0.2643   1.7711   2.6171   2.7258   4.0803   4.2642
     5.2975   5.6622   5.9569   6.3875   6.9121   6.9797   8.8711   9.1598
     9.5631  10.5767  10.9286  10.9638  12.9105  13.3402  14.3258  14.6115
    15.1584  15.5369  15.7530  15.8955  16.4204  16.5175  16.9973  17.2677
    17.5752  18.1787  18.2178  18.3745  18.9513  19.5464  19.8689  20.1167
    20.1835  20.4953  20.7629  20.9794  21.4505  21.5821  21.9455  22.0816
    23.0496  23.3245  23.7112  23.7505  23.9195  23.9697  24.2616  24.3857
    24.8082  24.8949  25.3857  25.4229  25.6699  25.8616  26.2539  26.6349
    26.7445  26.7750  27.1306  27.4932  27.5877  27.7042  27.7973  28.2234
    28.5147  28.7803  29.0046  29.2732  29.6646  29.7412  30.0431  30.0642
    30.5040  30.5764  30.9797  31.0147  31.4976  31.5889  31.5972  32.0817
    32.8128  32.9539  33.1209  33.4659  33.5106  33.7692  33.9423  34.6474
    34.7944  35.1109  35.2795  35.3099  35.6389  35.7368  36.6506  36.7493
    36.9568  37.2099  37.5982  37.6686  38.1100  38.2929  38.4899  39.0581
    39.1193  39.5902  39.8879  40.1279  40.4506  40.8992  40.9028  41.2823
    41.7246  42.0269  42.2501  42.3701  42.6426  42.8663  43.0931  43.3062
    43.3753  43.8021  44.0841  44.4255  44.7844  44.8056  45.2639  45.4887
    45.8378  45.9426  46.0946  46.3813  46.9189  46.9855  47.4745  47.6745
    47.8825  48.1720  48.6017  48.6482  49.0250  49.2473  49.8141  49.8380
    50.4315  50.6355  51.1383  51.2416  51.5360  51.6371  51.9052  52.2450
    52.5627  52.7519  52.9830  53.0342  53.3915  53.4825  53.7521  54.0537
    54.0671  54.6618  54.6640  54.8146  54.8817  55.4104  55.4533  55.6806
    55.8056  56.1611  56.2180  56.6941  57.0625  57.1324  57.4710  57.5503

     occupation numbers 
     1.0000   1.0000   1.0000   1.0000   1.0000   1.0000   1.0000   1.0000
     1.0000   1.0000   1.0000   1.0000   1.0000   0.0000   0.0000   0.0000
     0.0000   0.0000   0.0000   0.0000   0.0000   0.0000   0.0000   0.0000
     0.0000   0.0000   0.0000   0.0000   0.0000   0.0000   0.0000   0.0000
     0.0000   0.0000   0.0000   0.0000   0.0000   0.0000   0.0000   0.0000
     0.0000   0.0000   0.0000   0.0000   0.0000   0.0000   0.0000   0.0000
     0.0000   0.0000   0.0000   0.0000   0.0000   0.0000   0.0000   0.0000
     0.0000   0.0000   0.0000   0.0000   0.0000   0.0000   0.0000   0.0000
     0.0000   0.0000   0.0000   0.0000   0.0000   0.0000   0.0000   0.0000
     0.0000   0.0000   0.0000   0.0000   0.0000   0.0000   0.0000   0.0000
     0.0000   0.0000   0.0000   0.0000   0.0000   0.0000   0.0000   0.0000
     0.0000   0.0000   0.0000   0.0000   0.0000   0.0000   0.0000   0.0000
     0.0000   0.0000   0.0000   0.0000   0.0000   0.0000   0.0000   0.0000
     0.0000   0.0000   0.0000   0.0000   0.0000   0.0000   0.0000   0.0000
     0.0000   0.0000   0.0000   0.0000   0.0000   0.0000   0.0000   0.0000
     0.0000   0.0000   0.0000   0.0000   0.0000   0.0000   0.0000   0.0000
     0.0000   0.0000   0.0000   0.0000   0.0000   0.0000   0.0000   0.0000
     0.0000   0.0000   0.0000   0.0000   0.0000   0.0000   0.0000   0.0000
     0.0000   0.0000   0.0000   0.0000   0.0000   0.0000   0.0000   0.0000
     0.0000   0.0000   0.0000   0.0000   0.0000   0.0000   0.0000   0.0000
     0.0000   0.0000   0.0000   0.0000   0.0000   0.0000   0.0000   0.0000
     0.0000   0.0000   0.0000   0.0000   0.0000   0.0000   0.0000   0.0000
     0.0000   0.0000   0.0000   0.0000   0.0000   0.0000   0.0000   0.0000
     0.0000   0.0000   0.0000   0.0000   0.0000   0.0000   0.0000   0.0000
     0.0000   0.0000   0.0000   0.0000   0.0000   0.0000   0.0000   0.0000

          k = 0.0556 0.2245 0.0000 ( 14784 PWs)   bands (ev):

   -66.6649 -40.8574 -40.7715 -40.6579 -19.5945 -18.5846 -11.1704  -9.5810
    -9.1862  -8.3281  -7.9972  -6.9872  -6.4512  -3.7369  -3.3343  -3.2854
    -2.2061   0.5114   0.6100   2.3929   2.9931   3.0859   3.7831   4.0304
     5.5597   5.8742   6.2612   6.5168   6.9619   7.2017   8.5083   8.5925
     9.3808  10.8793  11.3332  11.3807  12.9154  13.0066  13.9852  14.2105
    14.6393  14.8813  15.3569  15.4108  16.1336  16.2107  16.6092  16.9177
    17.3324  17.4747  17.6941  18.2580  18.5578  18.9452  19.0721  19.0820
    20.1934  20.4163  20.5802  20.6230  20.7803  21.4433  22.4069  22.4149
    22.7301  22.8543  23.4646  23.7156  24.0651  24.3771  24.6127  24.7112
    25.1153  25.2202  25.5495  25.6596  25.7727  26.3039  26.5578  26.6211
    26.7554  27.3829  27.3843  27.7088  28.1295  28.3128  28.3166  28.6048
    28.8572  28.9928  29.3374  29.5268  29.8182  29.9424  30.3560  30.4877
    30.7513  30.8153  31.1736  31.2662  31.6196  32.0675  32.3114  32.3183
    32.8679  32.9534  33.4377  33.5339  33.9324  34.1122  34.5104  34.8264
    35.1441  35.2843  35.4594  35.8127  35.8513  36.6289  36.7947  36.9611
    37.1310  37.6810  37.9866  38.3054  38.3688  38.7890  39.0068  39.3264
    39.6691  39.7927  40.0309  40.5657  40.7817  40.9126  41.1854  41.3370
    41.6285  41.7081  42.4522  42.7132  42.8772  43.2145  43.2964  43.5787
    43.8999  44.0013  44.5920  44.7134  44.8735  44.9610  45.3161  45.5325
    45.6815  46.0301  46.4133  46.4377  47.1857  47.3088  47.5743  47.6458
    47.9791  48.0218  48.3496  48.4265  48.7458  48.8665  49.1145  49.6564
    49.9541  50.2485  50.5555  50.6569  51.0096  51.0366  51.2734  51.2887
    51.8883  52.2014  52.2172  52.4733  52.6096  53.1032  53.1315  53.3117
    53.5301  53.7212  53.8420  54.1994  54.5605  54.7563  54.7858  55.1095
    55.2719  55.6098  55.7037  56.0499  56.1031  56.8270  56.9399  57.1197

     occupation numbers 
     1.0000   1.0000   1.0000   1.0000   1.0000   1.0000   1.0000   1.0000
     1.0000   1.0000   1.0000   1.0000   1.0000   0.0000   0.0000   0.0000
     0.0000   0.0000   0.0000   0.0000   0.0000   0.0000   0.0000   0.0000
     0.0000   0.0000   0.0000   0.0000   0.0000   0.0000   0.0000   0.0000
     0.0000   0.0000   0.0000   0.0000   0.0000   0.0000   0.0000   0.0000
     0.0000   0.0000   0.0000   0.0000   0.0000   0.0000   0.0000   0.0000
     0.0000   0.0000   0.0000   0.0000   0.0000   0.0000   0.0000   0.0000
     0.0000   0.0000   0.0000   0.0000   0.0000   0.0000   0.0000   0.0000
     0.0000   0.0000   0.0000   0.0000   0.0000   0.0000   0.0000   0.0000
     0.0000   0.0000   0.0000   0.0000   0.0000   0.0000   0.0000   0.0000
     0.0000   0.0000   0.0000   0.0000   0.0000   0.0000   0.0000   0.0000
     0.0000   0.0000   0.0000   0.0000   0.0000   0.0000   0.0000   0.0000
     0.0000   0.0000   0.0000   0.0000   0.0000   0.0000   0.0000   0.0000
     0.0000   0.0000   0.0000   0.0000   0.0000   0.0000   0.0000   0.0000
     0.0000   0.0000   0.0000   0.0000   0.0000   0.0000   0.0000   0.0000
     0.0000   0.0000   0.0000   0.0000   0.0000   0.0000   0.0000   0.0000
     0.0000   0.0000   0.0000   0.0000   0.0000   0.0000   0.0000   0.0000
     0.0000   0.0000   0.0000   0.0000   0.0000   0.0000   0.0000   0.0000
     0.0000   0.0000   0.0000   0.0000   0.0000   0.0000   0.0000   0.0000
     0.0000   0.0000   0.0000   0.0000   0.0000   0.0000   0.0000   0.0000
     0.0000   0.0000   0.0000   0.0000   0.0000   0.0000   0.0000   0.0000
     0.0000   0.0000   0.0000   0.0000   0.0000   0.0000   0.0000   0.0000
     0.0000   0.0000   0.0000   0.0000   0.0000   0.0000   0.0000   0.0000
     0.0000   0.0000   0.0000   0.0000   0.0000   0.0000   0.0000   0.0000
     0.0000   0.0000   0.0000   0.0000   0.0000   0.0000   0.0000   0.0000

          k = 0.0556 0.2887 0.0000 ( 14788 PWs)   bands (ev):

   -66.6572 -40.8432 -40.8424 -40.6761 -19.2755 -18.4555 -11.0717  -9.8201
    -9.6317  -8.6318  -7.7361  -7.1747  -6.7339  -3.8239  -3.4580  -3.0457
    -1.9220   0.9068   1.0381   2.6099   3.0248   3.3790   3.7965   3.8846
     5.9003   6.0120   6.4192   6.7542   7.0901   7.6154   8.2893   8.7691
     9.2643  11.0097  11.3867  11.4983  11.8689  11.9806  13.5810  13.7191
    14.2880  14.5030  14.6939  15.4219  15.9624  16.2243  16.6245  16.8680
    16.8730  17.2845  17.4831  17.6594  18.2103  18.5073  18.7815  18.9308
    19.8666  20.1808  20.2117  20.4750  20.8598  21.4777  21.7194  21.7721
    22.6141  23.0950  23.3558  23.4916  23.9582  24.1486  24.6255  24.7384
    25.1529  25.3113  25.4091  25.6783  25.9227  26.2854  26.5200  26.8437
    26.9661  27.4014  27.5663  27.7616  28.1199  28.4113  28.6816  29.3778
    29.5387  29.6284  29.9182  30.1398  30.2493  30.2805  30.6288  31.0997
    31.3982  31.4215  31.7500  31.7614  32.2489  32.3741  32.9246  32.9605
    33.2742  33.4751  33.8227  33.9184  34.4820  34.6002  35.0861  35.1124
    35.5131  35.6052  36.0848  36.3526  36.4685  36.9478  37.1150  37.3624
    37.4702  38.1810  38.3356  38.7729  38.8011  39.0556  39.1961  39.4047
    39.5435  40.0343  40.0989  40.6322  40.9846  41.2996  41.5052  41.8024
    41.9871  42.2842  42.4764  42.9244  43.0450  43.0776  43.5571  43.5978
    44.0511  44.3415  44.5378  44.6163  44.8269  45.2371  45.6004  45.6076
    45.8529  45.9912  46.1612  46.3571  46.7181  46.9757  47.0959  47.4533
    47.7100  47.8324  48.1888  48.2170  48.5896  48.8823  49.0550  49.0770
    49.2343  49.7508  49.8220  50.1536  50.3031  50.4738  50.8048  51.1474
    51.1745  51.5221  51.5342  51.7783  52.0353  52.4869  52.5727  52.9870
    53.0948  53.5041  53.5174  54.0170  54.0951  54.4949  54.5538  54.8429
    54.9362  55.4297  55.5170  56.0365  56.1143  56.4772  56.6063  56.7924

     occupation numbers 
     1.0000   1.0000   1.0000   1.0000   1.0000   1.0000   1.0000   1.0000
     1.0000   1.0000   1.0000   1.0000   1.0000   0.0000   0.0000   0.0000
     0.0000   0.0000   0.0000   0.0000   0.0000   0.0000   0.0000   0.0000
     0.0000   0.0000   0.0000   0.0000   0.0000   0.0000   0.0000   0.0000
     0.0000   0.0000   0.0000   0.0000   0.0000   0.0000   0.0000   0.0000
     0.0000   0.0000   0.0000   0.0000   0.0000   0.0000   0.0000   0.0000
     0.0000   0.0000   0.0000   0.0000   0.0000   0.0000   0.0000   0.0000
     0.0000   0.0000   0.0000   0.0000   0.0000   0.0000   0.0000   0.0000
     0.0000   0.0000   0.0000   0.0000   0.0000   0.0000   0.0000   0.0000
     0.0000   0.0000   0.0000   0.0000   0.0000   0.0000   0.0000   0.0000
     0.0000   0.0000   0.0000   0.0000   0.0000   0.0000   0.0000   0.0000
     0.0000   0.0000   0.0000   0.0000   0.0000   0.0000   0.0000   0.0000
     0.0000   0.0000   0.0000   0.0000   0.0000   0.0000   0.0000   0.0000
     0.0000   0.0000   0.0000   0.0000   0.0000   0.0000   0.0000   0.0000
     0.0000   0.0000   0.0000   0.0000   0.0000   0.0000   0.0000   0.0000
     0.0000   0.0000   0.0000   0.0000   0.0000   0.0000   0.0000   0.0000
     0.0000   0.0000   0.0000   0.0000   0.0000   0.0000   0.0000   0.0000
     0.0000   0.0000   0.0000   0.0000   0.0000   0.0000   0.0000   0.0000
     0.0000   0.0000   0.0000   0.0000   0.0000   0.0000   0.0000   0.0000
     0.0000   0.0000   0.0000   0.0000   0.0000   0.0000   0.0000   0.0000
     0.0000   0.0000   0.0000   0.0000   0.0000   0.0000   0.0000   0.0000
     0.0000   0.0000   0.0000   0.0000   0.0000   0.0000   0.0000   0.0000
     0.0000   0.0000   0.0000   0.0000   0.0000   0.0000   0.0000   0.0000
     0.0000   0.0000   0.0000   0.0000   0.0000   0.0000   0.0000   0.0000
     0.0000   0.0000   0.0000   0.0000   0.0000   0.0000   0.0000   0.0000

          k = 0.0556 0.3528 0.0000 ( 14772 PWs)   bands (ev):

   -66.6496 -40.9141 -40.8275 -40.6941 -18.9293 -18.3172 -11.2046 -10.0750
    -9.8776  -8.8643  -7.5341  -7.4095  -6.8879  -3.7925  -3.4756  -2.7201
    -1.7119   1.3227   1.4847   2.3441   2.7360   3.2486   4.0935   4.3933
     5.7503   6.1702   6.5488   6.9013   7.3208   8.1472   8.8330   9.3070
     9.4289   9.9489  10.0413  11.4663  12.1677  12.2232  12.5278  12.7352
    13.7500  13.9478  15.0962  15.2103  15.5140  15.9969  16.1548  16.4899
    16.7463  17.1211  17.3681  18.0822  18.1779  18.4160  18.8485  18.8554
    19.5423  19.9288  20.1553  20.3719  20.9455  20.9866  21.6401  21.6644
    22.0513  22.4263  22.5844  22.9117  23.7782  24.0259  24.3463  24.6927
    24.9421  25.0894  25.7319  25.9859  26.0898  26.2524  26.5646  27.0660
    27.0729  27.2387  27.4853  28.5419  28.6573  28.7353  29.3667  29.5482
    29.5559  29.8016  30.1811  30.1934  30.7863  31.0319  31.3279  31.5811
    32.1725  32.1735  32.4006  32.6228  32.8891  32.9446  33.4922  33.5756
    34.0042  34.1045  34.1134  34.3263  35.2706  35.3216  35.5673  35.5966
    36.0565  36.1490  36.4854  36.6991  36.8164  37.0959  37.3433  37.8241
    38.1436  38.3832  38.4424  38.9515  39.0632  39.1993  39.4921  39.7505
    40.0502  40.1550  40.5951  40.8375  41.2991  41.5525  41.6355  42.0357
    42.0533  42.4975  42.5694  42.7578  43.0914  43.3007  43.4574  43.6913
    43.7988  44.0007  44.1813  44.2724  44.6947  45.0774  45.4533  45.5079
    45.6820  45.9585  46.4059  46.4337  46.5981  46.7705  46.8724  46.9607
    47.3237  47.3676  47.9257  48.0168  48.1704  48.4263  48.6780  48.8632
    48.8943  49.3633  49.5134  49.7237  49.8904  50.2341  50.6586  50.9186
    51.0358  51.3834  51.6143  51.8216  51.9361  52.3476  52.4228  52.7703
    52.9897  53.4005  53.5672  53.9143  54.0080  54.3394  54.3853  54.7067
    54.7238  55.1720  55.2974  55.5264  55.8802  56.1953  56.2989  56.3659

     occupation numbers 
     1.0000   1.0000   1.0000   1.0000   1.0000   1.0000   1.0000   1.0000
     1.0000   1.0000   1.0000   1.0000   1.0000   0.0000   0.0000   0.0000
     0.0000   0.0000   0.0000   0.0000   0.0000   0.0000   0.0000   0.0000
     0.0000   0.0000   0.0000   0.0000   0.0000   0.0000   0.0000   0.0000
     0.0000   0.0000   0.0000   0.0000   0.0000   0.0000   0.0000   0.0000
     0.0000   0.0000   0.0000   0.0000   0.0000   0.0000   0.0000   0.0000
     0.0000   0.0000   0.0000   0.0000   0.0000   0.0000   0.0000   0.0000
     0.0000   0.0000   0.0000   0.0000   0.0000   0.0000   0.0000   0.0000
     0.0000   0.0000   0.0000   0.0000   0.0000   0.0000   0.0000   0.0000
     0.0000   0.0000   0.0000   0.0000   0.0000   0.0000   0.0000   0.0000
     0.0000   0.0000   0.0000   0.0000   0.0000   0.0000   0.0000   0.0000
     0.0000   0.0000   0.0000   0.0000   0.0000   0.0000   0.0000   0.0000
     0.0000   0.0000   0.0000   0.0000   0.0000   0.0000   0.0000   0.0000
     0.0000   0.0000   0.0000   0.0000   0.0000   0.0000   0.0000   0.0000
     0.0000   0.0000   0.0000   0.0000   0.0000   0.0000   0.0000   0.0000
     0.0000   0.0000   0.0000   0.0000   0.0000   0.0000   0.0000   0.0000
     0.0000   0.0000   0.0000   0.0000   0.0000   0.0000   0.0000   0.0000
     0.0000   0.0000   0.0000   0.0000   0.0000   0.0000   0.0000   0.0000
     0.0000   0.0000   0.0000   0.0000   0.0000   0.0000   0.0000   0.0000
     0.0000   0.0000   0.0000   0.0000   0.0000   0.0000   0.0000   0.0000
     0.0000   0.0000   0.0000   0.0000   0.0000   0.0000   0.0000   0.0000
     0.0000   0.0000   0.0000   0.0000   0.0000   0.0000   0.0000   0.0000
     0.0000   0.0000   0.0000   0.0000   0.0000   0.0000   0.0000   0.0000
     0.0000   0.0000   0.0000   0.0000   0.0000   0.0000   0.0000   0.0000
     0.0000   0.0000   0.0000   0.0000   0.0000   0.0000   0.0000   0.0000

          k = 0.0556 0.4170 0.0000 ( 14734 PWs)   bands (ev):

   -66.6429 -40.9759 -40.8143 -40.7100 -18.5953 -18.1867 -11.4636 -10.4690
    -9.9156  -9.0253  -7.6223  -7.3994  -6.8095  -3.6994  -3.3831  -2.3980
    -1.5988   1.4719   1.7944   1.8924   2.7345   3.4422   4.3619   4.7047
     5.6605   5.7431   6.4122   7.5017   7.7378   8.6074   8.7743   9.0104
     9.4484  10.0220  10.2216  10.9577  11.2139  12.0522  12.7188  13.1014
    13.4427  13.5901  14.4400  14.5605  15.3224  15.5667  15.7188  16.5335
    16.6839  16.9102  17.3529  17.8896  17.9329  18.4997  19.0167  19.2856
    19.5906  19.6029  19.9780  20.2063  20.3627  20.7007  21.3675  21.5147
    21.7054  21.9931  22.5221  22.9013  23.4272  23.6595  23.9711  24.2983
    24.6204  25.2347  25.5754  25.6176  26.2561  26.6533  26.7385  27.3694
    27.6108  27.9304  28.2813  28.4436  28.7001  29.1263  29.2309  29.4724
    29.9472  30.0895  30.7938  30.9736  31.5214  31.6455  31.6631  32.0210
    32.2270  32.5003  32.9242  33.1086  33.1705  33.5341  33.8511  34.1255
    34.4501  34.4566  34.7742  34.8110  35.2688  35.4264  35.8547  36.3471
    36.4874  36.7343  36.9185  37.4202  37.5121  37.5719  38.1009  38.2210
    38.4491  38.6332  38.9797  39.2259  39.2444  39.3776  39.6218  40.0565
    40.0746  40.5011  40.7037  40.9445  41.1588  41.1611  41.5643  41.7453
    42.0312  42.3486  42.5341  42.6087  42.9684  43.2892  43.4920  43.6686
    43.7501  43.9489  44.0507  44.3394  44.6397  44.8916  44.9510  45.2599
    45.7251  46.0032  46.0406  46.3017  46.3336  46.5224  46.7310  46.9045
    47.4292  47.4909  47.7810  47.9954  48.2531  48.2978  48.4859  48.8417
    48.9376  49.3218  49.4990  49.5773  50.0655  50.1281  50.5822  50.8568
    50.8640  51.3496  51.7148  51.9337  51.9787  52.3951  52.6455  52.8897
    52.9971  53.2543  53.2986  53.6712  53.9680  53.9683  54.1168  54.2907
    54.4571  54.9245  54.9404  55.1292  55.2391  55.5927  55.7903  55.9358

     occupation numbers 
     1.0000   1.0000   1.0000   1.0000   1.0000   1.0000   1.0000   1.0000
     1.0000   1.0000   1.0000   1.0000   1.0000   0.0000   0.0000   0.0000
     0.0000   0.0000   0.0000   0.0000   0.0000   0.0000   0.0000   0.0000
     0.0000   0.0000   0.0000   0.0000   0.0000   0.0000   0.0000   0.0000
     0.0000   0.0000   0.0000   0.0000   0.0000   0.0000   0.0000   0.0000
     0.0000   0.0000   0.0000   0.0000   0.0000   0.0000   0.0000   0.0000
     0.0000   0.0000   0.0000   0.0000   0.0000   0.0000   0.0000   0.0000
     0.0000   0.0000   0.0000   0.0000   0.0000   0.0000   0.0000   0.0000
     0.0000   0.0000   0.0000   0.0000   0.0000   0.0000   0.0000   0.0000
     0.0000   0.0000   0.0000   0.0000   0.0000   0.0000   0.0000   0.0000
     0.0000   0.0000   0.0000   0.0000   0.0000   0.0000   0.0000   0.0000
     0.0000   0.0000   0.0000   0.0000   0.0000   0.0000   0.0000   0.0000
     0.0000   0.0000   0.0000   0.0000   0.0000   0.0000   0.0000   0.0000
     0.0000   0.0000   0.0000   0.0000   0.0000   0.0000   0.0000   0.0000
     0.0000   0.0000   0.0000   0.0000   0.0000   0.0000   0.0000   0.0000
     0.0000   0.0000   0.0000   0.0000   0.0000   0.0000   0.0000   0.0000
     0.0000   0.0000   0.0000   0.0000   0.0000   0.0000   0.0000   0.0000
     0.0000   0.0000   0.0000   0.0000   0.0000   0.0000   0.0000   0.0000
     0.0000   0.0000   0.0000   0.0000   0.0000   0.0000   0.0000   0.0000
     0.0000   0.0000   0.0000   0.0000   0.0000   0.0000   0.0000   0.0000
     0.0000   0.0000   0.0000   0.0000   0.0000   0.0000   0.0000   0.0000
     0.0000   0.0000   0.0000   0.0000   0.0000   0.0000   0.0000   0.0000
     0.0000   0.0000   0.0000   0.0000   0.0000   0.0000   0.0000   0.0000
     0.0000   0.0000   0.0000   0.0000   0.0000   0.0000   0.0000   0.0000
     0.0000   0.0000   0.0000   0.0000   0.0000   0.0000   0.0000   0.0000

          k = 0.0556 0.4811 0.0000 ( 14699 PWs)   bands (ev):

[...]
    54.1329  54.3558  54.5052  54.5785  54.7016  54.9928  55.0778  55.1768

     occupation numbers 
     1.0000   1.0000   1.0000   1.0000   1.0000   1.0000   1.0000   1.0000
     1.0000   1.0000   1.0000   1.0000   1.0000   0.0000   0.0000   0.0000
     0.0000   0.0000   0.0000   0.0000   0.0000   0.0000   0.0000   0.0000
     0.0000   0.0000   0.0000   0.0000   0.0000   0.0000   0.0000   0.0000
     0.0000   0.0000   0.0000   0.0000   0.0000   0.0000   0.0000   0.0000
     0.0000   0.0000   0.0000   0.0000   0.0000   0.0000   0.0000   0.0000
     0.0000   0.0000   0.0000   0.0000   0.0000   0.0000   0.0000   0.0000
     0.0000   0.0000   0.0000   0.0000   0.0000   0.0000   0.0000   0.0000
     0.0000   0.0000   0.0000   0.0000   0.0000   0.0000   0.0000   0.0000
     0.0000   0.0000   0.0000   0.0000   0.0000   0.0000   0.0000   0.0000
     0.0000   0.0000   0.0000   0.0000   0.0000   0.0000   0.0000   0.0000
     0.0000   0.0000   0.0000   0.0000   0.0000   0.0000   0.0000   0.0000
     0.0000   0.0000   0.0000   0.0000   0.0000   0.0000   0.0000   0.0000
     0.0000   0.0000   0.0000   0.0000   0.0000   0.0000   0.0000   0.0000
     0.0000   0.0000   0.0000   0.0000   0.0000   0.0000   0.0000   0.0000
     0.0000   0.0000   0.0000   0.0000   0.0000   0.0000   0.0000   0.0000
     0.0000   0.0000   0.0000   0.0000   0.0000   0.0000   0.0000   0.0000
     0.0000   0.0000   0.0000   0.0000   0.0000   0.0000   0.0000   0.0000
     0.0000   0.0000   0.0000   0.0000   0.0000   0.0000   0.0000   0.0000
     0.0000   0.0000   0.0000   0.0000   0.0000   0.0000   0.0000   0.0000
     0.0000   0.0000   0.0000   0.0000   0.0000   0.0000   0.0000   0.0000
     0.0000   0.0000   0.0000   0.0000   0.0000   0.0000   0.0000   0.0000
     0.0000   0.0000   0.0000   0.0000   0.0000   0.0000   0.0000   0.0000
     0.0000   0.0000   0.0000   0.0000   0.0000   0.0000   0.0000   0.0000
     0.0000   0.0000   0.0000   0.0000   0.0000   0.0000   0.0000   0.0000

          k = 0.2222 0.5774 0.0000 ( 14754 PWs)   bands (ev):

   -66.6311 -40.9924 -40.8310 -40.7914 -17.9591 -17.9008 -11.3768 -11.2222
    -9.9449  -9.0829  -8.9552  -7.9587  -6.1593  -3.8689  -2.6982  -2.5308
    -1.1107   0.8551   2.5832   3.4120   4.0236   4.4716   5.0841   5.4564
     5.8615   6.3924   6.4606   6.9825   7.5506   7.7441   8.2614   8.7488
     9.0874   9.1823   9.2925   9.9552  10.5113  11.1244  11.6615  12.3060
    12.4586  12.9756  13.3180  13.3670  13.8895  14.8829  15.8309  16.4100
    16.5462  16.5976  17.1725  17.8932  18.0804  18.6009  18.9846  19.3355
    19.7085  20.3487  20.9549  21.1420  21.3704  21.4553  21.7803  21.9062
    22.4964  22.6050  23.1239  23.7229  23.8530  24.0086  24.1613  24.7005
    24.9219  25.1817  25.6094  25.8856  26.1919  26.6465  26.7788  27.1866
    27.6758  28.1140  28.7990  28.8110  28.8796  29.3317  29.4470  29.6761
    29.8377  29.9688  30.5575  30.7262  31.0570  31.1968  31.5862  31.6544
    31.9897  32.2509  32.3795  32.8984  32.9824  33.2051  33.5131  33.7448
    34.0179  34.5347  34.5462  35.2055  35.3225  35.3324  35.5264  35.9173
    36.2868  36.5900  37.1946  37.4024  37.5108  38.1465  38.2526  38.2861
    38.9162  39.0149  39.4377  39.8059  40.1279  40.1681  40.5676  40.9896
    41.4318  41.5845  41.6649  41.9782  42.0222  42.6524  42.7704  42.8606
    42.9879  43.0169  43.2392  43.8923  44.1345  44.3103  44.5026  44.6621
    44.7276  44.8603  44.9176  45.0775  45.3624  45.7153  45.8518  45.9448
    46.1786  46.1999  46.7788  46.8242  47.2488  47.2957  47.4663  47.5351
    47.5815  47.6676  48.1371  48.4856  48.5952  48.6066  48.9500  48.9510
    49.1629  49.2481  49.8177  49.9381  50.3103  50.5862  50.5868  50.9413
    51.0785  51.2030  51.2964  51.5903  51.8671  51.9166  52.0724  52.3722
    52.5983  52.9261  53.0206  53.0785  53.4612  53.4772  53.5052  53.5198
    54.0098  54.1353  54.3743  54.3745  54.6444  54.6486  54.8371  55.2959

     occupation numbers 
     1.0000   1.0000   1.0000   1.0000   1.0000   1.0000   1.0000   1.0000
     1.0000   1.0000   1.0000   1.0000   1.0000   0.0000   0.0000   0.0000
     0.0000   0.0000   0.0000   0.0000   0.0000   0.0000   0.0000   0.0000
     0.0000   0.0000   0.0000   0.0000   0.0000   0.0000   0.0000   0.0000
     0.0000   0.0000   0.0000   0.0000   0.0000   0.0000   0.0000   0.0000
     0.0000   0.0000   0.0000   0.0000   0.0000   0.0000   0.0000   0.0000
     0.0000   0.0000   0.0000   0.0000   0.0000   0.0000   0.0000   0.0000
     0.0000   0.0000   0.0000   0.0000   0.0000   0.0000   0.0000   0.0000
     0.0000   0.0000   0.0000   0.0000   0.0000   0.0000   0.0000   0.0000
     0.0000   0.0000   0.0000   0.0000   0.0000   0.0000   0.0000   0.0000
     0.0000   0.0000   0.0000   0.0000   0.0000   0.0000   0.0000   0.0000
     0.0000   0.0000   0.0000   0.0000   0.0000   0.0000   0.0000   0.0000
     0.0000   0.0000   0.0000   0.0000   0.0000   0.0000   0.0000   0.0000
     0.0000   0.0000   0.0000   0.0000   0.0000   0.0000   0.0000   0.0000
     0.0000   0.0000   0.0000   0.0000   0.0000   0.0000   0.0000   0.0000
     0.0000   0.0000   0.0000   0.0000   0.0000   0.0000   0.0000   0.0000
     0.0000   0.0000   0.0000   0.0000   0.0000   0.0000   0.0000   0.0000
     0.0000   0.0000   0.0000   0.0000   0.0000   0.0000   0.0000   0.0000
     0.0000   0.0000   0.0000   0.0000   0.0000   0.0000   0.0000   0.0000
     0.0000   0.0000   0.0000   0.0000   0.0000   0.0000   0.0000   0.0000
     0.0000   0.0000   0.0000   0.0000   0.0000   0.0000   0.0000   0.0000
     0.0000   0.0000   0.0000   0.0000   0.0000   0.0000   0.0000   0.0000
     0.0000   0.0000   0.0000   0.0000   0.0000   0.0000   0.0000   0.0000
     0.0000   0.0000   0.0000   0.0000   0.0000   0.0000   0.0000   0.0000
     0.0000   0.0000   0.0000   0.0000   0.0000   0.0000   0.0000   0.0000

          k = 0.2778 0.4811 0.0000 ( 14692 PWs)   bands (ev):

   -66.6320 -40.9744 -40.8401 -40.7930 -18.0117 -17.9186 -11.3255 -11.1157
    -9.6708  -9.3071  -9.1387  -7.8501  -6.2559  -3.8391  -2.8279  -2.6370
    -1.0258   1.3551   2.2009   3.2154   3.9366   4.5227   5.5492   5.6069
     5.9457   6.2166   6.7977   6.8697   7.4778   7.9794   8.1771   8.3333
     8.4118   9.0134   9.7892  10.1082  10.5890  11.1695  11.3182  11.6319
    12.6645  12.6867  13.6772  13.9816  14.6207  15.0599  15.1843  15.8082
    16.1666  16.8426  17.3151  18.1072  18.4977  19.0630  19.1427  19.1715
    19.6059  19.7149  20.2999  20.8191  21.5399  21.6655  22.3496  22.5769
    22.8998  23.0234  23.3120  23.7908  24.0564  24.3977  24.7363  25.0454
    25.0678  25.2671  25.4793  25.7081  25.9479  26.0013  26.8382  27.0080
    27.4107  27.5748  27.7639  28.1142  28.1903  28.7359  29.3975  29.6850
    29.7967  30.1786  30.3263  30.6707  31.1185  31.1511  31.4732  31.7749
    31.8001  32.6362  32.7842  32.9113  32.9335  33.2873  33.3222  33.8706
    34.3219  34.4699  34.8944  35.2100  35.6415  35.7392  35.7599  35.7995
    36.1710  36.8323  36.9012  37.5689  37.6657  38.1189  38.2743  38.9794
    39.4112  39.4980  39.7188  39.9711  40.1393  40.3151  40.3633  40.4775
    40.8720  40.9640  41.2666  41.3396  41.5482  41.9412  41.9950  42.5067
    42.6374  42.8731  42.9853  43.3411  43.5263  43.7576  43.8835  44.0942
    44.3806  44.4228  44.9897  45.3685  45.3867  45.5226  46.1066  46.1539
    46.4768  46.7349  46.8724  47.1178  47.3271  47.6610  47.7560  47.7736
    48.2573  48.6251  48.8067  48.9067  49.0134  49.1479  49.4465  49.5864
    49.6862  49.8160  49.9240  50.2569  50.3208  50.3755  50.6444  50.8140
    51.1556  51.2200  51.3610  51.4586  51.7340  51.8283  52.4607  52.5266
    52.6155  52.7437  53.0425  53.1251  53.1905  53.3540  53.4462  53.5756
    54.0195  54.0574  54.3774  54.4016  54.6626  54.8135  55.0294  55.0378

     occupation numbers 
     1.0000   1.0000   1.0000   1.0000   1.0000   1.0000   1.0000   1.0000
     1.0000   1.0000   1.0000   1.0000   1.0000   0.0000   0.0000   0.0000
     0.0000   0.0000   0.0000   0.0000   0.0000   0.0000   0.0000   0.0000
     0.0000   0.0000   0.0000   0.0000   0.0000   0.0000   0.0000   0.0000
     0.0000   0.0000   0.0000   0.0000   0.0000   0.0000   0.0000   0.0000
     0.0000   0.0000   0.0000   0.0000   0.0000   0.0000   0.0000   0.0000
     0.0000   0.0000   0.0000   0.0000   0.0000   0.0000   0.0000   0.0000
     0.0000   0.0000   0.0000   0.0000   0.0000   0.0000   0.0000   0.0000
     0.0000   0.0000   0.0000   0.0000   0.0000   0.0000   0.0000   0.0000
     0.0000   0.0000   0.0000   0.0000   0.0000   0.0000   0.0000   0.0000
     0.0000   0.0000   0.0000   0.0000   0.0000   0.0000   0.0000   0.0000
     0.0000   0.0000   0.0000   0.0000   0.0000   0.0000   0.0000   0.0000
     0.0000   0.0000   0.0000   0.0000   0.0000   0.0000   0.0000   0.0000
     0.0000   0.0000   0.0000   0.0000   0.0000   0.0000   0.0000   0.0000
     0.0000   0.0000   0.0000   0.0000   0.0000   0.0000   0.0000   0.0000
     0.0000   0.0000   0.0000   0.0000   0.0000   0.0000   0.0000   0.0000
     0.0000   0.0000   0.0000   0.0000   0.0000   0.0000   0.0000   0.0000
     0.0000   0.0000   0.0000   0.0000   0.0000   0.0000   0.0000   0.0000
     0.0000   0.0000   0.0000   0.0000   0.0000   0.0000   0.0000   0.0000
     0.0000   0.0000   0.0000   0.0000   0.0000   0.0000   0.0000   0.0000
     0.0000   0.0000   0.0000   0.0000   0.0000   0.0000   0.0000   0.0000
     0.0000   0.0000   0.0000   0.0000   0.0000   0.0000   0.0000   0.0000
     0.0000   0.0000   0.0000   0.0000   0.0000   0.0000   0.0000   0.0000
     0.0000   0.0000   0.0000   0.0000   0.0000   0.0000   0.0000   0.0000
     0.0000   0.0000   0.0000   0.0000   0.0000   0.0000   0.0000   0.0000

          k = 0.2778 0.5453 0.0000 ( 14710 PWs)   bands (ev):

   -66.6302 -40.9661 -40.8686 -40.7896 -17.9104 -17.8708 -11.4859 -10.9376
    -9.9413  -9.4109  -8.9978  -8.0449  -6.0630  -4.0319  -2.8584  -2.3735
    -0.9187   1.1673   1.9870   3.5185   4.3638   5.0794   5.4756   5.9150
     6.1383   6.1945   6.8288   7.0384   7.4526   7.6003   7.9946   8.0770
     8.8083   8.8129   9.4964   9.6959  10.2760  10.6331  11.4470  11.6571
    12.5582  12.9827  13.2246  13.5191  13.8611  14.8290  14.8657  16.0511
    16.8131  17.2232  17.6390  18.2805  18.5029  18.9278  19.1609  19.3084
    19.5351  19.9820  20.8328  20.9363  21.6154  21.6228  22.1213  22.2039
    22.3637  23.0641  23.2884  23.7760  23.8881  24.2842  24.3502  24.8329
    25.1760  25.6026  25.6855  26.3905  26.3959  26.6660  27.1697  27.1901
    27.5762  27.8095  28.0379  28.2400  28.9981  29.1332  29.1764  29.3562
    29.6861  29.7886  30.4056  30.7389  30.8772  31.0434  31.1942  31.5334
    31.9438  32.0701  32.3192  32.6772  32.8574  33.0258  33.3084  33.5145
    34.0223  34.1986  34.6861  35.0293  35.1708  35.5695  35.7122  36.2430
    36.2689  36.6965  36.8111  37.4075  37.5877  37.9294  38.0742  38.3514
    38.9582  39.2265  39.3134  39.6087  40.1622  40.1997  40.4720  40.5400
    40.9318  41.2745  41.7226  42.3652  42.3995  42.6417  42.7189  43.2107
    43.4269  43.7305  43.8478  43.9388  44.2544  44.5234  44.6019  44.9476
    45.0776  45.2242  45.6787  45.6976  45.8457  45.9903  46.1740  46.3696
    46.5670  46.6823  47.0627  47.1548  47.3721  47.3985  47.6931  48.1254
    48.1470  48.2283  48.4945  48.5582  48.9342  48.9368  49.1835  49.2869
    49.4919  49.5887  49.8726  49.9058  50.0837  50.2489  50.4618  50.5396
    50.8601  50.9258  51.2571  51.3078  51.5809  51.6673  51.8790  52.0231
    52.2199  52.3569  52.4507  52.7542  53.1404  53.1777  53.2217  53.3888
    53.6143  53.6513  53.8970  53.9353  54.3520  54.3838  54.7928  54.8502

     occupation numbers 
     1.0000   1.0000   1.0000   1.0000   1.0000   1.0000   1.0000   1.0000
     1.0000   1.0000   1.0000   1.0000   1.0000   0.0000   0.0000   0.0000
     0.0000   0.0000   0.0000   0.0000   0.0000   0.0000   0.0000   0.0000
     0.0000   0.0000   0.0000   0.0000   0.0000   0.0000   0.0000   0.0000
     0.0000   0.0000   0.0000   0.0000   0.0000   0.0000   0.0000   0.0000
     0.0000   0.0000   0.0000   0.0000   0.0000   0.0000   0.0000   0.0000
     0.0000   0.0000   0.0000   0.0000   0.0000   0.0000   0.0000   0.0000
     0.0000   0.0000   0.0000   0.0000   0.0000   0.0000   0.0000   0.0000
     0.0000   0.0000   0.0000   0.0000   0.0000   0.0000   0.0000   0.0000
     0.0000   0.0000   0.0000   0.0000   0.0000   0.0000   0.0000   0.0000
     0.0000   0.0000   0.0000   0.0000   0.0000   0.0000   0.0000   0.0000
     0.0000   0.0000   0.0000   0.0000   0.0000   0.0000   0.0000   0.0000
     0.0000   0.0000   0.0000   0.0000   0.0000   0.0000   0.0000   0.0000
     0.0000   0.0000   0.0000   0.0000   0.0000   0.0000   0.0000   0.0000
     0.0000   0.0000   0.0000   0.0000   0.0000   0.0000   0.0000   0.0000
     0.0000   0.0000   0.0000   0.0000   0.0000   0.0000   0.0000   0.0000
     0.0000   0.0000   0.0000   0.0000   0.0000   0.0000   0.0000   0.0000
     0.0000   0.0000   0.0000   0.0000   0.0000   0.0000   0.0000   0.0000
     0.0000   0.0000   0.0000   0.0000   0.0000   0.0000   0.0000   0.0000
     0.0000   0.0000   0.0000   0.0000   0.0000   0.0000   0.0000   0.0000
     0.0000   0.0000   0.0000   0.0000   0.0000   0.0000   0.0000   0.0000
     0.0000   0.0000   0.0000   0.0000   0.0000   0.0000   0.0000   0.0000
     0.0000   0.0000   0.0000   0.0000   0.0000   0.0000   0.0000   0.0000
     0.0000   0.0000   0.0000   0.0000   0.0000   0.0000   0.0000   0.0000
     0.0000   0.0000   0.0000   0.0000   0.0000   0.0000   0.0000   0.0000

          k = 0.3333 0.5774 0.0000 ( 14718 PWs)   bands (ev):

   -66.6295 -40.9464 -40.8965 -40.7882 -17.8715 -17.8501 -11.5567 -10.6898
   -10.1640  -9.5316  -8.9120  -8.1444  -5.9633  -4.1564  -2.9104  -2.2496
    -0.8337   1.3407   1.6234   3.6519   4.6364   5.3858   5.7318   5.9707
     6.0406   6.4124   6.9769   7.2154   7.4825   7.4867   7.5159   7.8460
     8.4099   9.1863   9.4583   9.6749   9.8834  10.5572  10.9268  11.6925
    12.6082  12.8756  13.4740  13.4745  13.8003  14.1934  14.6031  16.0261
    17.4894  17.7031  17.8857  18.0190  18.1495  19.0260  19.0858  19.6348
    19.6813  20.1574  20.9822  21.2514  21.3675  21.4532  22.0498  22.0849
    22.4261  22.6607  23.6821  23.7045  23.8393  23.8806  23.9617  25.2561
    25.4451  26.0022  26.4516  26.7084  26.7422  26.9524  27.2674  27.3417
    27.4615  27.7595  27.8560  27.9827  28.7531  29.0739  29.1511  29.1912
    29.4781  29.6735  30.3279  30.4566  30.5842  30.9212  31.1058  31.6455
    31.9606  32.2619  32.5849  32.6281  32.6395  33.1569  33.1651  33.1936
    33.5702  33.6814  34.5979  34.8878  35.1748  35.8493  35.8813  36.0276
    36.7535  36.7804  36.8453  36.9447  37.7716  38.0335  38.4121  38.6209
    38.7322  38.8293  39.0986  39.3460  39.4594  39.4668  39.5925  40.9051
    41.4617  41.9076  42.1041  42.4177  42.6310  42.6853  43.1337  43.1583
    43.5959  43.7679  43.8322  44.3043  44.9059  45.1908  45.5108  45.7040
    45.7254  45.8433  45.8901  46.0725  46.0833  46.1807  46.3501  46.9215
    46.9655  47.1268  47.1389  47.1431  47.3076  47.7477  47.7964  47.9473
    48.2099  48.3216  48.4334  48.5149  48.6886  48.6992  48.8826  48.9908
    49.2100  49.2149  49.6369  49.7713  50.0022  50.1497  50.2309  50.4454
    50.7142  50.7873  50.9953  51.3045  51.3626  51.4396  51.6914  51.8730
    51.9088  52.1419  52.2250  52.6844  52.6952  52.7116  53.0779  53.1200
    53.2037  53.3333  53.5314  54.0734  54.1713  54.5645  54.6729  54.7635

     occupation numbers 
     1.0000   1.0000   1.0000   1.0000   1.0000   1.0000   1.0000   1.0000
     1.0000   1.0000   1.0000   1.0000   1.0000   0.0000   0.0000   0.0000
     0.0000   0.0000   0.0000   0.0000   0.0000   0.0000   0.0000   0.0000
     0.0000   0.0000   0.0000   0.0000   0.0000   0.0000   0.0000   0.0000
     0.0000   0.0000   0.0000   0.0000   0.0000   0.0000   0.0000   0.0000
     0.0000   0.0000   0.0000   0.0000   0.0000   0.0000   0.0000   0.0000
     0.0000   0.0000   0.0000   0.0000   0.0000   0.0000   0.0000   0.0000
     0.0000   0.0000   0.0000   0.0000   0.0000   0.0000   0.0000   0.0000
     0.0000   0.0000   0.0000   0.0000   0.0000   0.0000   0.0000   0.0000
     0.0000   0.0000   0.0000   0.0000   0.0000   0.0000   0.0000   0.0000
     0.0000   0.0000   0.0000   0.0000   0.0000   0.0000   0.0000   0.0000
     0.0000   0.0000   0.0000   0.0000   0.0000   0.0000   0.0000   0.0000
     0.0000   0.0000   0.0000   0.0000   0.0000   0.0000   0.0000   0.0000
     0.0000   0.0000   0.0000   0.0000   0.0000   0.0000   0.0000   0.0000
     0.0000   0.0000   0.0000   0.0000   0.0000   0.0000   0.0000   0.0000
     0.0000   0.0000   0.0000   0.0000   0.0000   0.0000   0.0000   0.0000
     0.0000   0.0000   0.0000   0.0000   0.0000   0.0000   0.0000   0.0000
     0.0000   0.0000   0.0000   0.0000   0.0000   0.0000   0.0000   0.0000
     0.0000   0.0000   0.0000   0.0000   0.0000   0.0000   0.0000   0.0000
     0.0000   0.0000   0.0000   0.0000   0.0000   0.0000   0.0000   0.0000
     0.0000   0.0000   0.0000   0.0000   0.0000   0.0000   0.0000   0.0000
     0.0000   0.0000   0.0000   0.0000   0.0000   0.0000   0.0000   0.0000
     0.0000   0.0000   0.0000   0.0000   0.0000   0.0000   0.0000   0.0000
     0.0000   0.0000   0.0000   0.0000   0.0000   0.0000   0.0000   0.0000
     0.0000   0.0000   0.0000   0.0000   0.0000   0.0000   0.0000   0.0000

     highest occupied, lowest unoccupied level (ev):    -5.9633   -4.1564

     Writing all to output data dir ./tmp/MoS2.save/ :
     XML data file, pseudopotentials, collected wavefunctions

     init_run     :      0.86s CPU      1.02s WALL (       1 calls)
     electrons    :     14.28s CPU     14.73s WALL (       1 calls)

     Called by init_run:
     wfcinit      :      0.00s CPU      0.02s WALL (       1 calls)
     wfcinit:atom :      0.00s CPU      0.00s WALL (       1 calls)
     wfcinit:wfcr :      0.18s CPU      0.24s WALL (       1 calls)
     potinit      :      0.03s CPU      0.08s WALL (       1 calls)
     hinit0       :      0.62s CPU      0.69s WALL (       1 calls)

     Called by electrons:
     c_bands      :     14.09s CPU     14.49s WALL (       1 calls)
     v_of_rho     :      0.01s CPU      0.02s WALL (       1 calls)
     v_h          :      0.00s CPU      0.00s WALL (       1 calls)
     v_xc         :      0.01s CPU      0.01s WALL (       1 calls)

     Called by c_bands:
     init_us_2    :      0.00s CPU      0.00s WALL (       1 calls)
     cegterg      :     10.96s CPU     11.29s WALL (       4 calls)

     Called by sum_band:

     Called by *egterg:
     cdiaghg      :      6.75s CPU      6.82s WALL (      68 calls)
     cegterg:over :      0.74s CPU      0.82s WALL (      67 calls)
     cegterg:upda :      0.43s CPU      0.46s WALL (      67 calls)
     cegterg:last :      0.88s CPU      0.93s WALL (      28 calls)
     cdiaghg:chol :      0.14s CPU      0.15s WALL (      68 calls)
     cdiaghg:inve :      0.14s CPU      0.14s WALL (      68 calls)
     cdiaghg:para :      1.01s CPU      1.06s WALL (     136 calls)
     h_psi        :      2.19s CPU      2.33s WALL (      72 calls)
     g_psi        :      0.01s CPU      0.01s WALL (      67 calls)

     Called by h_psi:
     h_psi:calbec :      0.08s CPU      0.12s WALL (      72 calls)
     vloc_psi     :      2.05s CPU      2.13s WALL (      72 calls)
     add_vuspsi   :      0.05s CPU      0.05s WALL (      72 calls)

     General routines
     calbec       :      0.08s CPU      0.12s WALL (      72 calls)
     fft          :      0.60s CPU      0.66s WALL (      11 calls)
     fftw         :      1.86s CPU      1.94s WALL (   11634 calls)
     davcio       :      0.00s CPU      0.01s WALL (       2 calls)

     Parallel routines

     PWSCF        :     24.15s CPU     29.22s WALL


   This run was terminated on:  19:31: 3   8Feb2026            

=------------------------------------------------------------------------------=
   JOB DONE.
=------------------------------------------------------------------------------=
