
     Program PHONON v.7.3.1 starts on 25Feb2026 at 11:24: 5 

     This program is part of the open-source Quantum ESPRESSO suite
     for quantum simulation of materials; please cite
         "P. Giannozzi et al., J. Phys.:Condens. Matter 21 395502 (2009);
         "P. Giannozzi et al., J. Phys.:Condens. Matter 29 465901 (2017);
         "P. Giannozzi et al., J. Chem. Phys. 152 154105 (2020);
          URL http://www.quantum-espresso.org", 
     in publications or presentations arising from this work. More details at
     http://www.quantum-espresso.org/quote

     Parallel version (MPI), running on   128 processors

     MPI processes distributed on     4 nodes
     229859 MiB available memory on the printing compute node when the environment starts

     Waiting for input...
     Reading input from standard input
      Title line not specified: using 'default'.


     Dynamical matrices for q-points given in input
     (   7q-points):
       N         xq(1)         xq(2)         xq(3) 
       1   0.000000000   0.000000000   0.000000000
       2  -0.000000001  -0.192450000   0.000000000
       3  -0.000000003  -0.384900000   0.000000000
       4   0.000000004   0.577350000   0.000000000
       5  -0.166667000  -0.288675000   0.000000000
       6  -0.166667000  -0.481125000   0.000000000
       7  -0.333333000  -0.577350000   0.000000000

     Reading xml data from directory:

     ./MoS2.save/

     R & G space division:  proc/nbgrp/npool/nimage =     128
     Subspace diagonalization in iterative solution of the eigenvalue problem:
     one sub-group per band group will be used
     custom distributed-memory algorithm (size of sub-group:  2*  2 procs)


     IMPORTANT: XC functional enforced from input :
     Exchange-correlation= PBESOL
                           (   1   4  10   8   0   0   0)
     Any further DFT definition will be discarded
     Please, verify this is what you really want


     Parallelization info
     --------------------
     sticks:   dense  smooth     PW     G-vecs:    dense   smooth      PW
     Min          15       6      1                 3631      892     113
     Max          16       7      2                 3664      942     166
     Sum        1945     769    223               467365   117995   18465

     Using Slab Decomposition

 ----2D----2D----2D----2D----2D----2D----2D----2D----2D----2D----2D----2D
  The code is running with the 2D cutoff
  Please refer to:
  Sohier, T., Calandra, M., & Mauri, F. (2017), 
  Density functional perturbation theory for gated two-dimensional heterostructures:
  Theoretical developments and application to flexural phonons in graphene.
  Physical Review B, 96(7), 75448. https://doi.org/10.1103/PhysRevB.96.075448
 ----2D----2D----2D----2D----2D----2D----2D----2D----2D----2D----2D----2D
     Reading collected, re-writing distributed wavefunctions in ./

     Saving dvscf to file. Distribute only q points, not irreducible representations.

     Calculation of q =    0.0000000   0.0000000   0.0000000

     Parallelization info
     --------------------
     sticks:   dense  smooth     PW     G-vecs:    dense   smooth      PW
     Min          15       6      1                 3631      892     113
     Max          16       7      2                 3664      942     166
     Sum        1945     769    223               467365   117995   18465

     Using Slab Decomposition


     Title: 
     default                                                                    


     bravais-lattice index     =            4
     lattice parameter (alat)  =       5.9413  a.u.
     unit-cell volume          =    1222.6725 (a.u.)^3
     number of atoms/cell      =            3
     number of atomic types    =            2
     number of electrons       =        26.00
     number of Kohn-Sham states=          200
     kinetic-energy cutoff     =      80.0000  Ry
     charge density cutoff     =     800.0000  Ry
     Exchange-correlation= PBESOL
                           (   1   4  10   8   0   0   0)

     celldm(1)=   5.941254  celldm(2)=   0.000000  celldm(3)=   6.732015
     celldm(4)=   0.000000  celldm(5)=   0.000000  celldm(6)=   0.000000

     crystal axes: (cart. coord. in units of alat)
               a(1) = (   1.000000   0.000000   0.000000 )  
               a(2) = (  -0.500000   0.866025   0.000000 )  
               a(3) = (   0.000000   0.000000   6.732015 )  

     reciprocal axes: (cart. coord. in units 2 pi/alat)
               b(1) = (  1.000000  0.577350 -0.000000 )  
               b(2) = (  0.000000  1.154701  0.000000 )  
               b(3) = (  0.000000 -0.000000  0.148544 )  


     PseudoPot. # 1 for Mo read from file:
     ../../pseudo/Mo.pbesol.dojo.upf
     MD5 check sum: c40353276b9086539cda6b9e5a66907b
     Pseudo is Norm-conserving + core correction, Zval = 14.0
     Generated using ONCVPSP code by D. R. Hamann
     Using radial grid of 1640 points,  6 beta functions with: 
                l(1) =   0
                l(2) =   0
                l(3) =   1
                l(4) =   1
                l(5) =   2
                l(6) =   2

     PseudoPot. # 2 for S  read from file:
     ../../pseudo/S.pbesol.dojo.upf
     MD5 check sum: 501737efeeef1fb1c631cda521d4e019
     Pseudo is Norm-conserving + core correction, Zval =  6.0
     Generated using ONCVPSP code by D. R. Hamann
     Using radial grid of 1146 points,  6 beta functions with: 
                l(1) =   0
                l(2) =   0
                l(3) =   1
                l(4) =   1
                l(5) =   2
                l(6) =   2

     atomic species   valence    mass     pseudopotential
     Mo               14.00    95.95000     Mo( 1.00)
     S                 6.00    32.06500     S ( 1.00)

     12 Sym. Ops. (no inversion) found


                                    s                        frac. trans.

      isym =  1     identity                                     

 cryst.   s( 1) = (     1          0          0      )
                  (     0          1          0      )
                  (     0          0          1      )

 cart.    s( 1) = (  1.0000000  0.0000000  0.0000000 )
                  (  0.0000000  1.0000000  0.0000000 )
                  (  0.0000000  0.0000000  1.0000000 )


      isym =  2     180 deg rotation - cart. axis [0,1,0]        

 cryst.   s( 2) = (    -1          0          0      )
                  (     1          1          0      )
                  (     0          0         -1      )

 cart.    s( 2) = ( -1.0000000  0.0000000  0.0000000 )
                  (  0.0000000  1.0000000  0.0000000 )
                  (  0.0000000  0.0000000 -1.0000000 )


      isym =  3     120 deg rotation - cryst. axis [0,0,1]       

 cryst.   s( 3) = (     0          1          0      )
                  (    -1         -1          0      )
                  (     0          0          1      )

 cart.    s( 3) = ( -0.5000000 -0.8660254  0.0000000 )
                  (  0.8660254 -0.5000000  0.0000000 )
                  (  0.0000000  0.0000000  1.0000000 )


      isym =  4     120 deg rotation - cryst. axis [0,0,-1]      

 cryst.   s( 4) = (    -1         -1          0      )
                  (     1          0          0      )
                  (     0          0          1      )

 cart.    s( 4) = ( -0.5000000  0.8660254  0.0000000 )
                  ( -0.8660254 -0.5000000  0.0000000 )
                  (  0.0000000  0.0000000  1.0000000 )


      isym =  5     180 deg rotation - cryst. axis [1,-1,0]      

 cryst.   s( 5) = (     0         -1          0      )
                  (    -1          0          0      )
                  (     0          0         -1      )

 cart.    s( 5) = (  0.5000000 -0.8660254  0.0000000 )
                  ( -0.8660254 -0.5000000  0.0000000 )
                  (  0.0000000  0.0000000 -1.0000000 )


      isym =  6     180 deg rotation - cryst. axis [2,1,0]       

 cryst.   s( 6) = (     1          1          0      )
                  (     0         -1          0      )
                  (     0          0         -1      )

 cart.    s( 6) = (  0.5000000  0.8660254  0.0000000 )
                  (  0.8660254 -0.5000000  0.0000000 )
                  (  0.0000000  0.0000000 -1.0000000 )


      isym =  7     inv. 180 deg rotation - cart. axis [0,0,1]   

 cryst.   s( 7) = (     1          0          0      )
                  (     0          1          0      )
                  (     0          0         -1      )

 cart.    s( 7) = (  1.0000000  0.0000000  0.0000000 )
                  (  0.0000000  1.0000000  0.0000000 )
                  (  0.0000000  0.0000000 -1.0000000 )


      isym =  8     inv. 180 deg rotation - cart. axis [1,0,0]   

 cryst.   s( 8) = (    -1          0          0      )
                  (     1          1          0      )
                  (     0          0          1      )

 cart.    s( 8) = ( -1.0000000  0.0000000  0.0000000 )
                  (  0.0000000  1.0000000  0.0000000 )
                  (  0.0000000  0.0000000  1.0000000 )


      isym =  9     inv.  60 deg rotation - cryst. axis [0,0,1]  

 cryst.   s( 9) = (    -1         -1          0      )
                  (     1          0          0      )
                  (     0          0         -1      )

 cart.    s( 9) = ( -0.5000000  0.8660254  0.0000000 )
                  ( -0.8660254 -0.5000000  0.0000000 )
                  (  0.0000000  0.0000000 -1.0000000 )


      isym = 10     inv.  60 deg rotation - cryst. axis [0,0,-1] 

 cryst.   s(10) = (     0          1          0      )
                  (    -1         -1          0      )
                  (     0          0         -1      )

 cart.    s(10) = ( -0.5000000 -0.8660254  0.0000000 )
                  (  0.8660254 -0.5000000  0.0000000 )
                  (  0.0000000  0.0000000 -1.0000000 )


      isym = 11     inv. 180 deg rotation - cryst. axis [0,1,0]  

 cryst.   s(11) = (     1          1          0      )
                  (     0         -1          0      )
                  (     0          0          1      )

 cart.    s(11) = (  0.5000000  0.8660254  0.0000000 )
                  (  0.8660254 -0.5000000  0.0000000 )
                  (  0.0000000  0.0000000  1.0000000 )


      isym = 12     inv. 180 deg rotation - cryst. axis [1,1,0]  

 cryst.   s(12) = (     0         -1          0      )
                  (    -1          0          0      )
                  (     0          0          1      )

 cart.    s(12) = (  0.5000000 -0.8660254  0.0000000 )
                  ( -0.8660254 -0.5000000  0.0000000 )
                  (  0.0000000  0.0000000  1.0000000 )


     point group D_3h (-62m)
     there are  6 classes
     the character table:

       E     2C3   3C2   s_h   2S3   3s_v 
A'_1   1.00  1.00  1.00  1.00  1.00  1.00
A'_2   1.00  1.00 -1.00  1.00  1.00 -1.00
E'     2.00 -1.00  0.00  2.00 -1.00  0.00
A''1   1.00  1.00  1.00 -1.00 -1.00 -1.00
A''2   1.00  1.00 -1.00 -1.00 -1.00  1.00
E''    2.00 -1.00  0.00 -2.00  1.00  0.00

     the symmetry operations in each class and the name of the first element:

     E        1
          identity                                               
     2C3      3    4
          120 deg rotation - cryst. axis [0,0,1]                 
     3C2      2    6    5
          180 deg rotation - cart. axis [0,1,0]                  
     s_h      7
          inv. 180 deg rotation - cart. axis [0,0,1]             
     2S3      9   10
          inv.  60 deg rotation - cryst. axis [0,0,1]            
     3s_v     8   11   12
          inv. 180 deg rotation - cart. axis [1,0,0]             

   Cartesian axes

     site n.     atom                  positions (alat units)
         1        Mo     tau(   1) = (   0.0000000   0.5773502   3.3660074  )
         2        S      tau(   2) = (   0.5000000   0.2886751   3.8614288  )
         3        S      tau(   3) = (   0.5000000   0.2886751   2.8705860  )

   Crystallographic axes

     site n.     atom                  positions (cryst. coord.)
         1        Mo     tau(   1) = (  0.3333333  0.6666666  0.5000000  )
         2        S      tau(   2) = (  0.6666667  0.3333333  0.5735918  )
         3        S      tau(   3) = (  0.6666667  0.3333333  0.4264082  )

     number of k points=     7
                       cart. coord. in units 2pi/alat
        k(    1) = (   0.0000000   0.0000000   0.0000000), wk =   0.0555556
        k(    2) = (   0.0000000   0.1924501   0.0000000), wk =   0.3333333
        k(    3) = (   0.0000000   0.3849002   0.0000000), wk =   0.3333333
        k(    4) = (   0.0000000  -0.5773503   0.0000000), wk =   0.1666667
        k(    5) = (   0.1666667   0.2886751   0.0000000), wk =   0.3333333
        k(    6) = (   0.1666667   0.4811252   0.0000000), wk =   0.6666667
        k(    7) = (   0.3333333   0.5773503   0.0000000), wk =   0.1111111

                       cryst. coord.
        k(    1) = (   0.0000000   0.0000000   0.0000000), wk =   0.0555556
        k(    2) = (   0.0000000   0.1666667   0.0000000), wk =   0.3333333
        k(    3) = (   0.0000000   0.3333333   0.0000000), wk =   0.3333333
        k(    4) = (   0.0000000  -0.5000000   0.0000000), wk =   0.1666667
        k(    5) = (   0.1666667   0.1666667   0.0000000), wk =   0.3333333
        k(    6) = (   0.1666667   0.3333333   0.0000000), wk =   0.6666667
        k(    7) = (   0.3333333   0.3333333   0.0000000), wk =   0.1111111

     Dense  grid:   467365 G-vectors     FFT dimensions: (  54,  54, 375)

     Smooth grid:   117995 G-vectors     FFT dimensions: (  36,  36, 240)

     Dynamical RAM for                 wfc:       0.35 MB

     Dynamical RAM for     wfc (w. buffer):       0.35 MB

     Dynamical RAM for           str. fact:       0.11 MB

     Dynamical RAM for           local pot:       0.03 MB

     Dynamical RAM for          nlocal pot:       0.09 MB

     Dynamical RAM for                qrad:       4.54 MB

     Dynamical RAM for          rho,v,vnew:       0.37 MB

     Dynamical RAM for           G-vectors:       0.22 MB

     Dynamical RAM for          h,s,v(r/c):       7.32 MB

     Dynamical RAM for          <psi|beta>:       0.16 MB

     Dynamical RAM for                 psi:       1.40 MB

     Dynamical RAM for                hpsi:       1.40 MB

     Dynamical RAM for      wfcinit/wfcrot:       1.62 MB

     Estimated static dynamical RAM per process >       6.21 MB

     Estimated max dynamical RAM per process >      16.50 MB

     Estimated total dynamical RAM >       2.06 GB
 ----2D----2D----2D----2D----2D----2D----2D----2D----2D----2D----2D----2D
  The code is running with the 2D cutoff
  Please refer to:
  Sohier, T., Calandra, M., & Mauri, F. (2017), 
  Density functional perturbation theory for gated two-dimensional heterostructures:
  Theoretical developments and application to flexural phonons in graphene.
  Physical Review B, 96(7), 75448. https://doi.org/10.1103/PhysRevB.96.075448
 ----2D----2D----2D----2D----2D----2D----2D----2D----2D----2D----2D----2D

     The potential is recalculated from file :
     ./_ph0/MoS2.save/charge-density

     Starting wfcs are   18 atomic +  182 random wfcs

     Band Structure Calculation
     Davidson diagonalization with overlap

     Computing kpt #:     1
     total cpu time spent up to now is       17.3 secs

     Computing kpt #:     2
     total cpu time spent up to now is       30.0 secs

     Computing kpt #:     3
     total cpu time spent up to now is       41.8 secs

     Computing kpt #:     4
     total cpu time spent up to now is       53.0 secs

     Computing kpt #:     5
     total cpu time spent up to now is       64.8 secs

     Computing kpt #:     6
     total cpu time spent up to now is       77.0 secs

     Computing kpt #:     7
     total cpu time spent up to now is       91.3 secs

     ethr =  3.85E-11,  avg # of iterations = 19.3

     total cpu time spent up to now is       91.3 secs

     End of band structure calculation

          k = 0.0000 0.0000 0.0000 ( 14855 PWs)   bands (ev):

   -66.6863 -40.8916 -40.6284 -40.6284 -20.1843 -18.8206 -11.7317  -8.5906
    -8.5906  -7.8020  -7.4339  -7.4339  -6.0277  -3.0790  -3.0790  -2.8025
    -2.8025  -0.3375  -0.1579   0.4566   2.1859   2.3426   3.1418   4.8479
     4.8479   5.3468   6.0003   6.8706   6.8706   7.1689   9.4592  10.1093
    10.1906  10.1906  10.5134  10.5134  10.6322  12.3374  13.9657  14.2190
    15.2534  16.2611  17.2509  17.2509  18.8720  18.8720  18.8969  19.1848
    19.5800  19.5800  19.6077  19.7201  19.7340  19.7340  20.2622  20.2997
    20.5809  20.5809  21.5050  21.5050  21.7160  21.9085  21.9256  21.9256
    22.2410  22.2410  22.2658  22.6867  22.6867  22.8787  23.7186  24.1772
    24.4213  24.4213  24.4219  24.4219  24.7274  25.1452  25.5273  25.5273
    25.6591  25.6591  25.7534  26.7068  27.3101  27.3101  27.8278  27.8278
    27.8899  28.6620  28.7471  28.9863  28.9863  29.6362  29.6362  30.0752
    30.0986  30.8777  30.8777  31.0909  31.4530  31.4530  31.5766  31.5766
    31.7330  32.2890  33.2345  33.3238  33.8591  33.8591  33.8816  33.8816
    34.6015  34.6747  35.5318  35.5318  35.5769  35.5769  36.1702  36.7245
    36.7245  37.0197  37.3752  37.4136  37.4136  37.8165  38.2476  38.6470
    38.6470  38.7834  38.7834  38.9390  39.8247  39.8247  40.6678  40.8630
    40.8630  41.5597  41.5597  41.6711  41.7595  41.8821  41.8821  42.2151
    42.6393  42.7584  42.7584  44.7583  44.7826  44.8965  44.8965  45.5600
    45.6810  45.6810  46.3872  46.3872  46.6700  46.8418  47.3625  47.3771
    47.3771  48.5155  48.7391  49.0959  49.0959  50.1462  50.1462  50.8311
    50.8311  50.9234  51.6062  52.1553  52.1553  52.1904  52.4745  52.4745
    52.9100  52.9100  53.2626  53.9315  53.9315  54.1774  54.1810  54.9961
    55.3343  55.6110  55.7897  55.7897  56.9069  56.9069  57.6054  57.6321
    57.6321  58.0011  58.0011  58.7868  58.7928  59.0012  59.0222  59.0371

     occupation numbers 
     1.0000   1.0000   1.0000   1.0000   1.0000   1.0000   1.0000   1.0000
     1.0000   1.0000   1.0000   1.0000   1.0000   0.0000   0.0000   0.0000
     0.0000   0.0000   0.0000   0.0000   0.0000   0.0000   0.0000   0.0000
     0.0000   0.0000   0.0000   0.0000   0.0000   0.0000   0.0000   0.0000
     0.0000   0.0000   0.0000   0.0000   0.0000   0.0000   0.0000   0.0000
     0.0000   0.0000   0.0000   0.0000   0.0000   0.0000   0.0000   0.0000
     0.0000   0.0000   0.0000   0.0000   0.0000   0.0000   0.0000   0.0000
     0.0000   0.0000   0.0000   0.0000   0.0000   0.0000   0.0000   0.0000
     0.0000   0.0000   0.0000   0.0000   0.0000   0.0000   0.0000   0.0000
     0.0000   0.0000   0.0000   0.0000   0.0000   0.0000   0.0000   0.0000
     0.0000   0.0000   0.0000   0.0000   0.0000   0.0000   0.0000   0.0000
     0.0000   0.0000   0.0000   0.0000   0.0000   0.0000   0.0000   0.0000
     0.0000   0.0000   0.0000   0.0000   0.0000   0.0000   0.0000   0.0000
     0.0000   0.0000   0.0000   0.0000   0.0000   0.0000   0.0000   0.0000
     0.0000   0.0000   0.0000   0.0000   0.0000   0.0000   0.0000   0.0000
     0.0000   0.0000   0.0000   0.0000   0.0000   0.0000   0.0000   0.0000
     0.0000   0.0000   0.0000   0.0000   0.0000   0.0000   0.0000   0.0000
     0.0000   0.0000   0.0000   0.0000   0.0000   0.0000   0.0000   0.0000
     0.0000   0.0000   0.0000   0.0000   0.0000   0.0000   0.0000   0.0000
     0.0000   0.0000   0.0000   0.0000   0.0000   0.0000   0.0000   0.0000
     0.0000   0.0000   0.0000   0.0000   0.0000   0.0000   0.0000   0.0000
     0.0000   0.0000   0.0000   0.0000   0.0000   0.0000   0.0000   0.0000
     0.0000   0.0000   0.0000   0.0000   0.0000   0.0000   0.0000   0.0000
     0.0000   0.0000   0.0000   0.0000   0.0000   0.0000   0.0000   0.0000
     0.0000   0.0000   0.0000   0.0000   0.0000   0.0000   0.0000   0.0000

          k = 0.0000 0.1925 0.0000 ( 14829 PWs)   bands (ev):

   -66.6751 -40.8698 -40.7380 -40.6532 -19.7644 -18.6499 -11.3019  -9.3715
    -8.9553  -8.1572  -8.0102  -7.0285  -6.2930  -3.6019  -3.2906  -3.2147
    -2.4601   0.2824   0.3796   1.9663   2.7651   2.8165   3.9308   4.1479
     5.4026   5.9138   6.0933   6.4908   6.7180   7.1155   8.4770   9.2266
     9.2647  10.8479  10.9396  11.0815  13.2458  13.5336  13.7643  13.8075
    14.9685  15.6696  15.9230  16.2274  16.3332  16.3835  16.7945  16.9263
    17.2318  17.6200  18.0644  18.4740  18.7930  19.2465  19.2750  19.4526
    19.9668  20.0928  20.1442  20.5195  21.8525  21.9908  22.0809  22.3877
    23.1270  23.3293  23.3379  23.8666  23.9114  24.2245  24.3945  24.5496
    24.9085  25.3033  25.3038  25.4366  26.0143  26.0752  26.1067  26.1274
    26.7281  26.9754  27.2552  27.5403  27.7180  27.8615  28.0514  28.6650
    28.7617  28.7643  29.0487  29.2593  29.3446  29.5818  29.6474  30.0511
    30.4425  30.5041  31.0663  31.4640  31.5382  31.8532  31.8779  31.9903
    32.5027  33.1246  33.3176  33.3658  33.4883  33.8166  34.2900  34.7764
    34.7801  34.9299  35.0467  35.4462  35.9110  36.3157  36.6752  36.7266
    37.1578  37.1717  37.3638  37.6432  38.0717  38.7565  38.8375  39.1717
    39.2793  39.4440  40.0257  40.1199  40.9339  41.0886  41.0951  41.4258
    41.5778  41.6958  42.0534  42.0853  42.4146  42.9724  43.0290  43.2389
    43.8105  43.8185  43.9913  44.7166  44.7631  44.8611  45.3047  45.3097
    45.8505  45.9692  46.0873  46.5119  46.7853  46.9918  47.2557  47.3536
    47.9861  48.0821  48.5915  48.8776  49.1480  49.6099  50.2095  50.2492
    50.2726  50.5474  50.7577  50.8263  50.8915  51.2158  51.4286  51.4994
    52.0149  52.0793  52.5220  52.8456  53.0381  53.0826  53.1557  53.3332
    53.3843  54.1555  54.1923  54.6220  55.0780  55.1326  55.2043  55.3269
    55.5487  55.8088  56.1867  56.3760  56.5921  56.6107  56.7053  57.2064

     occupation numbers 
     1.0000   1.0000   1.0000   1.0000   1.0000   1.0000   1.0000   1.0000
     1.0000   1.0000   1.0000   1.0000   1.0000   0.0000   0.0000   0.0000
     0.0000   0.0000   0.0000   0.0000   0.0000   0.0000   0.0000   0.0000
     0.0000   0.0000   0.0000   0.0000   0.0000   0.0000   0.0000   0.0000
     0.0000   0.0000   0.0000   0.0000   0.0000   0.0000   0.0000   0.0000
     0.0000   0.0000   0.0000   0.0000   0.0000   0.0000   0.0000   0.0000
     0.0000   0.0000   0.0000   0.0000   0.0000   0.0000   0.0000   0.0000
     0.0000   0.0000   0.0000   0.0000   0.0000   0.0000   0.0000   0.0000
     0.0000   0.0000   0.0000   0.0000   0.0000   0.0000   0.0000   0.0000
     0.0000   0.0000   0.0000   0.0000   0.0000   0.0000   0.0000   0.0000
     0.0000   0.0000   0.0000   0.0000   0.0000   0.0000   0.0000   0.0000
     0.0000   0.0000   0.0000   0.0000   0.0000   0.0000   0.0000   0.0000
     0.0000   0.0000   0.0000   0.0000   0.0000   0.0000   0.0000   0.0000
     0.0000   0.0000   0.0000   0.0000   0.0000   0.0000   0.0000   0.0000
     0.0000   0.0000   0.0000   0.0000   0.0000   0.0000   0.0000   0.0000
     0.0000   0.0000   0.0000   0.0000   0.0000   0.0000   0.0000   0.0000
     0.0000   0.0000   0.0000   0.0000   0.0000   0.0000   0.0000   0.0000
     0.0000   0.0000   0.0000   0.0000   0.0000   0.0000   0.0000   0.0000
     0.0000   0.0000   0.0000   0.0000   0.0000   0.0000   0.0000   0.0000
     0.0000   0.0000   0.0000   0.0000   0.0000   0.0000   0.0000   0.0000
     0.0000   0.0000   0.0000   0.0000   0.0000   0.0000   0.0000   0.0000
     0.0000   0.0000   0.0000   0.0000   0.0000   0.0000   0.0000   0.0000
     0.0000   0.0000   0.0000   0.0000   0.0000   0.0000   0.0000   0.0000
     0.0000   0.0000   0.0000   0.0000   0.0000   0.0000   0.0000   0.0000
     0.0000   0.0000   0.0000   0.0000   0.0000   0.0000   0.0000   0.0000

          k = 0.0000 0.3849 0.0000 ( 14770 PWs)   bands (ev):

   -66.6527 -40.9519 -40.8259 -40.7026 -18.7831 -18.2586 -11.3491 -10.2674
    -9.9122  -8.8397  -7.6086  -7.2641  -6.9892  -3.6345  -3.5677  -2.4668
    -1.7102   1.4157   1.5904   1.9693   2.5662   3.2227   4.2199   4.5412
     5.6327   6.2008   6.5226   7.2199   7.8051   8.4357   9.0530   9.1590
     9.4306   9.4873   9.7732  11.5120  11.6119  11.7624  12.4760  12.7960
    13.8458  14.5146  14.6576  15.4276  15.5235  15.6451  15.8817  16.4477
    16.7605  16.8602  17.1290  17.8566  18.0267  18.6274  18.6525  18.9248
    19.3490  19.5829  19.7689  20.3702  21.0160  21.1455  21.2432  21.2836
    22.1559  22.3175  22.4240  22.6219  23.2764  23.3153  23.8450  24.6450
    24.9702  25.4277  25.4675  25.4757  26.2561  26.7165  26.8457  27.2979
    27.5077  27.5315  27.7971  28.5074  28.7685  28.8426  29.3273  29.3776
    29.5150  30.2791  30.7758  30.9103  31.1231  31.1570  31.1912  31.8739
    32.1034  32.1360  32.3017  32.6061  32.7484  32.8725  33.9093  33.9315
    33.9974  34.2565  34.5220  34.7879  35.3872  35.4025  35.7204  35.8881
    35.8902  36.2703  36.2756  36.8815  37.3317  37.4446  37.4900  37.6788
    37.8718  38.6403  38.8765  39.2237  39.2440  39.2973  39.6298  39.8364
    40.1455  40.2865  40.7595  41.1070  41.2892  41.3849  41.7543  41.8550
    42.0440  42.4813  42.6826  42.9795  42.9859  43.0378  43.1241  43.5637
    43.7291  43.9051  43.9895  44.1150  44.5443  44.6928  44.8315  45.1379
    45.6983  45.8197  46.0838  46.2083  46.2664  46.5796  46.7435  46.9341
    47.1097  47.5114  47.6770  47.8056  47.9603  48.3383  48.4720  49.3160
    49.3195  49.3884  49.4465  49.5611  49.7156  49.9283  50.0835  50.2018
    50.4445  51.0210  51.7319  51.7427  51.8650  52.1559  52.4166  53.2095
    53.2609  53.4544  53.6089  53.7739  53.7785  54.3507  54.3893  54.4001
    54.5148  54.7745  54.8357  55.4356  55.5504  55.5610  55.6747  56.1436

     occupation numbers 
     1.0000   1.0000   1.0000   1.0000   1.0000   1.0000   1.0000   1.0000
     1.0000   1.0000   1.0000   1.0000   1.0000   0.0000   0.0000   0.0000
     0.0000   0.0000   0.0000   0.0000   0.0000   0.0000   0.0000   0.0000
     0.0000   0.0000   0.0000   0.0000   0.0000   0.0000   0.0000   0.0000
     0.0000   0.0000   0.0000   0.0000   0.0000   0.0000   0.0000   0.0000
     0.0000   0.0000   0.0000   0.0000   0.0000   0.0000   0.0000   0.0000
     0.0000   0.0000   0.0000   0.0000   0.0000   0.0000   0.0000   0.0000
     0.0000   0.0000   0.0000   0.0000   0.0000   0.0000   0.0000   0.0000
     0.0000   0.0000   0.0000   0.0000   0.0000   0.0000   0.0000   0.0000
     0.0000   0.0000   0.0000   0.0000   0.0000   0.0000   0.0000   0.0000
     0.0000   0.0000   0.0000   0.0000   0.0000   0.0000   0.0000   0.0000
     0.0000   0.0000   0.0000   0.0000   0.0000   0.0000   0.0000   0.0000
     0.0000   0.0000   0.0000   0.0000   0.0000   0.0000   0.0000   0.0000
     0.0000   0.0000   0.0000   0.0000   0.0000   0.0000   0.0000   0.0000
     0.0000   0.0000   0.0000   0.0000   0.0000   0.0000   0.0000   0.0000
     0.0000   0.0000   0.0000   0.0000   0.0000   0.0000   0.0000   0.0000
     0.0000   0.0000   0.0000   0.0000   0.0000   0.0000   0.0000   0.0000
     0.0000   0.0000   0.0000   0.0000   0.0000   0.0000   0.0000   0.0000
     0.0000   0.0000   0.0000   0.0000   0.0000   0.0000   0.0000   0.0000
     0.0000   0.0000   0.0000   0.0000   0.0000   0.0000   0.0000   0.0000
     0.0000   0.0000   0.0000   0.0000   0.0000   0.0000   0.0000   0.0000
     0.0000   0.0000   0.0000   0.0000   0.0000   0.0000   0.0000   0.0000
     0.0000   0.0000   0.0000   0.0000   0.0000   0.0000   0.0000   0.0000
     0.0000   0.0000   0.0000   0.0000   0.0000   0.0000   0.0000   0.0000
     0.0000   0.0000   0.0000   0.0000   0.0000   0.0000   0.0000   0.0000

          k = 0.0000-0.5774 0.0000 ( 14710 PWs)   bands (ev):

   -66.6415 -41.0563 -40.8038 -40.7271 -18.1702 -18.0284 -11.9071 -10.8992
   -10.1254  -9.1695  -7.8729  -6.8557  -6.6191  -3.5734  -3.0635  -2.0187
    -1.4948   0.2050   1.8594   2.3403   3.1068   3.7818   4.5801   5.1683
     5.3486   5.6848   5.8222   7.0204   7.4104   7.9231   8.4308   9.6688
    10.1895  10.2513  10.9285  11.3634  11.7161  12.1050  12.4487  13.0366
    13.5378  13.6936  14.0567  14.1451  14.7082  15.2185  15.8779  16.2358
    16.2376  16.7450  16.7636  17.0876  17.6910  17.7390  18.3439  18.5715
    18.8385  18.9145  19.2502  19.3906  20.3409  20.7755  21.1583  21.3149
    21.7257  22.2024  22.2109  22.3909  23.0059  23.9794  24.0824  24.6274
    25.1837  25.3685  25.6880  25.8975  26.4546  26.8696  26.8790  27.0117
    27.0744  27.4963  28.1468  28.8166  29.0482  29.7292  30.0862  30.2532
    30.2759  30.7724  31.0020  31.6136  31.7995  31.9332  32.5311  32.8464
    32.8911  32.9460  33.7407  33.9643  33.9788  34.2053  34.7441  34.9477
    35.1308  35.1985  35.3520  35.5659  35.6415  35.7832  36.0799  36.2853
    36.3651  36.7058  37.0341  37.2881  37.3732  37.6860  37.7395  37.9856
    38.1537  38.3164  38.8419  38.8674  38.9560  39.0965  39.5934  39.8683
    40.0052  40.6616  41.1411  41.1774  41.2885  41.4749  41.9185  42.0824
    42.1845  42.2066  42.6120  42.6185  43.1794  43.3427  43.5096  43.7427
    43.9275  44.0753  44.3641  44.6251  44.7614  45.1066  45.4178  45.6145
    45.7138  45.9597  46.0963  46.4075  46.5218  46.8128  46.9439  47.0398
    47.1957  47.2343  47.6237  47.8183  48.1538  48.5239  48.6645  49.0022
    49.0378  49.3791  49.4913  49.5302  49.6592  49.8002  49.8016  49.8864
    50.9596  50.9926  51.0862  51.2116  51.3997  51.5721  51.7466  51.7481
    51.9112  52.3265  52.4864  52.9431  52.9671  53.0441  53.3768  53.5763
    54.0557  54.3987  54.7598  54.8081  54.9258  55.0130  55.0586  55.0640

     occupation numbers 
     1.0000   1.0000   1.0000   1.0000   1.0000   1.0000   1.0000   1.0000
     1.0000   1.0000   1.0000   1.0000   1.0000   0.0000   0.0000   0.0000
     0.0000   0.0000   0.0000   0.0000   0.0000   0.0000   0.0000   0.0000
     0.0000   0.0000   0.0000   0.0000   0.0000   0.0000   0.0000   0.0000
     0.0000   0.0000   0.0000   0.0000   0.0000   0.0000   0.0000   0.0000
     0.0000   0.0000   0.0000   0.0000   0.0000   0.0000   0.0000   0.0000
     0.0000   0.0000   0.0000   0.0000   0.0000   0.0000   0.0000   0.0000
     0.0000   0.0000   0.0000   0.0000   0.0000   0.0000   0.0000   0.0000
     0.0000   0.0000   0.0000   0.0000   0.0000   0.0000   0.0000   0.0000
     0.0000   0.0000   0.0000   0.0000   0.0000   0.0000   0.0000   0.0000
     0.0000   0.0000   0.0000   0.0000   0.0000   0.0000   0.0000   0.0000
     0.0000   0.0000   0.0000   0.0000   0.0000   0.0000   0.0000   0.0000
     0.0000   0.0000   0.0000   0.0000   0.0000   0.0000   0.0000   0.0000
     0.0000   0.0000   0.0000   0.0000   0.0000   0.0000   0.0000   0.0000
     0.0000   0.0000   0.0000   0.0000   0.0000   0.0000   0.0000   0.0000
     0.0000   0.0000   0.0000   0.0000   0.0000   0.0000   0.0000   0.0000
     0.0000   0.0000   0.0000   0.0000   0.0000   0.0000   0.0000   0.0000
     0.0000   0.0000   0.0000   0.0000   0.0000   0.0000   0.0000   0.0000
     0.0000   0.0000   0.0000   0.0000   0.0000   0.0000   0.0000   0.0000
     0.0000   0.0000   0.0000   0.0000   0.0000   0.0000   0.0000   0.0000
     0.0000   0.0000   0.0000   0.0000   0.0000   0.0000   0.0000   0.0000
     0.0000   0.0000   0.0000   0.0000   0.0000   0.0000   0.0000   0.0000
     0.0000   0.0000   0.0000   0.0000   0.0000   0.0000   0.0000   0.0000
     0.0000   0.0000   0.0000   0.0000   0.0000   0.0000   0.0000   0.0000
     0.0000   0.0000   0.0000   0.0000   0.0000   0.0000   0.0000   0.0000

          k = 0.1667 0.2887 0.0000 ( 14803 PWs)   bands (ev):

   -66.6583 -40.8789 -40.8369 -40.7111 -19.0548 -18.3603 -11.0243  -9.8184
    -9.7257  -9.2248  -7.9282  -6.9763  -6.7709  -4.0038  -3.3764  -3.2120
    -1.6216   1.2534   1.3704   3.0532   3.3745   3.4758   3.9491   4.2354
     5.6186   5.6794   5.9210   6.4915   6.6825   7.8955   8.6561   9.0177
     9.7182  10.9696  11.6399  11.7725  11.7938  11.9891  12.5442  12.6257
    13.8608  14.0470  14.2350  14.3679  15.0452  15.9985  16.2764  16.8127
    16.8174  17.2470  17.4092  17.7721  18.1010  18.8805  19.0036  19.1628
    20.0598  20.2019  20.5970  20.8947  21.6141  21.7533  21.9370  21.9857
    22.3600  22.6136  22.7694  23.2074  23.5684  23.5800  24.0949  24.1080
    24.5948  24.8200  25.4924  25.6492  25.8742  25.9170  26.2278  27.0778
    27.3293  27.3791  27.7180  27.7827  27.9258  28.6079  29.1107  29.1526
    29.3892  29.4308  29.8815  30.5961  30.8257  31.0434  31.3251  31.4692
    31.7324  32.0297  32.2838  32.4580  32.6772  32.8786  33.0579  33.1836
    33.5953  33.9444  33.9887  34.1668  34.3322  34.7813  35.2394  35.3553
    35.7913  36.1595  36.5591  36.8087  36.8966  36.9453  37.3986  37.6918
    38.0863  38.1448  38.4256  38.5167  38.6505  38.9525  39.2932  39.5166
    39.5425  39.9615  40.3705  40.9066  40.9423  41.4373  41.5910  41.7132
    41.9203  42.0027  42.5512  42.6006  42.6927  42.7775  43.0987  43.6044
    43.8425  43.8531  44.2856  44.3898  44.6664  45.1855  45.2752  45.2853
    45.9800  46.0604  46.1328  46.3416  46.4019  46.7367  47.0306  47.2954
    47.3097  47.8042  48.2822  48.6366  48.6891  48.8705  48.9792  49.1976
    49.4921  49.5616  49.7544  49.9849  50.4756  50.5060  50.8715  51.0543
    51.4003  51.9689  51.9907  52.2143  52.4634  52.7260  52.7724  52.8748
    53.0620  53.2388  53.4164  53.6560  54.0209  54.1208  54.4953  54.6086
    54.7328  54.9948  55.1035  55.5829  55.6280  55.8291  55.8633  56.5074

     occupation numbers 
     1.0000   1.0000   1.0000   1.0000   1.0000   1.0000   1.0000   1.0000
     1.0000   1.0000   1.0000   1.0000   1.0000   0.0000   0.0000   0.0000
     0.0000   0.0000   0.0000   0.0000   0.0000   0.0000   0.0000   0.0000
     0.0000   0.0000   0.0000   0.0000   0.0000   0.0000   0.0000   0.0000
     0.0000   0.0000   0.0000   0.0000   0.0000   0.0000   0.0000   0.0000
     0.0000   0.0000   0.0000   0.0000   0.0000   0.0000   0.0000   0.0000
     0.0000   0.0000   0.0000   0.0000   0.0000   0.0000   0.0000   0.0000
     0.0000   0.0000   0.0000   0.0000   0.0000   0.0000   0.0000   0.0000
     0.0000   0.0000   0.0000   0.0000   0.0000   0.0000   0.0000   0.0000
     0.0000   0.0000   0.0000   0.0000   0.0000   0.0000   0.0000   0.0000
     0.0000   0.0000   0.0000   0.0000   0.0000   0.0000   0.0000   0.0000
     0.0000   0.0000   0.0000   0.0000   0.0000   0.0000   0.0000   0.0000
     0.0000   0.0000   0.0000   0.0000   0.0000   0.0000   0.0000   0.0000
     0.0000   0.0000   0.0000   0.0000   0.0000   0.0000   0.0000   0.0000
     0.0000   0.0000   0.0000   0.0000   0.0000   0.0000   0.0000   0.0000
     0.0000   0.0000   0.0000   0.0000   0.0000   0.0000   0.0000   0.0000
     0.0000   0.0000   0.0000   0.0000   0.0000   0.0000   0.0000   0.0000
     0.0000   0.0000   0.0000   0.0000   0.0000   0.0000   0.0000   0.0000
     0.0000   0.0000   0.0000   0.0000   0.0000   0.0000   0.0000   0.0000
     0.0000   0.0000   0.0000   0.0000   0.0000   0.0000   0.0000   0.0000
     0.0000   0.0000   0.0000   0.0000   0.0000   0.0000   0.0000   0.0000
     0.0000   0.0000   0.0000   0.0000   0.0000   0.0000   0.0000   0.0000
     0.0000   0.0000   0.0000   0.0000   0.0000   0.0000   0.0000   0.0000
     0.0000   0.0000   0.0000   0.0000   0.0000   0.0000   0.0000   0.0000
     0.0000   0.0000   0.0000   0.0000   0.0000   0.0000   0.0000   0.0000

          k = 0.1667 0.4811 0.0000 ( 14748 PWs)   bands (ev):

   -66.6415 -41.0030 -40.8039 -40.7828 -18.1936 -18.0086 -11.4279 -11.0017
    -9.8511  -9.2429  -8.3501  -7.6841  -6.4552  -3.6450  -3.0192  -2.5550
    -1.3738   1.0997   2.7387   2.7476   3.6354   3.8173   4.6129   4.7829
     5.3276   6.0577   6.6918   7.3247   7.5178   8.0012   8.2715   8.6456
     9.4918   9.9400  10.2269  10.6039  10.7094  11.1967  12.1219  12.5007
    12.7137  13.4986  13.8548  14.0728  14.4490  15.1436  15.3417  15.8916
    16.4165  16.9091  17.1017  17.6832  17.7892  18.3006  19.1546  19.2326
    19.7250  19.8632  20.5425  20.6633  20.9286  21.1702  21.6194  22.1861
    22.5116  22.7215  22.9679  23.0536  23.2927  23.6283  23.9552  24.1282
    24.5130  25.5867  25.7348  26.1470  26.2744  26.5641  26.8352  27.0861
    27.2701  27.4866  27.8844  28.3313  28.6366  28.8780  29.2902  29.4871
    29.9755  30.0001  30.5423  30.7941  31.0611  31.3908  31.6246  31.9589
    32.2468  32.6141  32.8230  33.2371  33.7064  33.8864  33.9857  34.1906
    34.6398  34.8104  35.2275  35.4668  35.5114  35.8786  36.2542  36.3052
    36.8110  36.9094  37.1503  37.1710  37.6344  37.7471  38.1878  38.3472
    38.6358  38.9135  38.9782  39.2993  39.3602  39.6691  40.1223  40.1380
    40.3290  40.8323  40.9109  41.0940  41.2516  41.5843  41.8017  42.2422
    42.2554  42.5030  42.6164  43.0036  43.2277  43.4026  43.5287  43.7430
    44.0980  44.4138  44.5559  44.7812  44.8786  45.2520  45.2976  45.5032
    45.7223  45.9324  46.0171  46.2210  46.6621  46.8679  46.8901  47.0399
    47.4125  47.7359  48.2747  48.3786  48.5587  48.7048  49.1074  49.1273
    49.4430  49.5204  49.7193  50.0609  50.1527  50.4636  50.7401  50.9554
    51.0818  51.1952  51.7770  51.7780  52.0299  52.1296  52.4208  52.5230
    52.6992  52.9002  53.0394  53.2794  53.3633  53.8278  54.0213  54.2030
    54.3090  54.5840  54.7377  54.8710  55.1541  55.2044  55.3948  55.5184

     occupation numbers 
     1.0000   1.0000   1.0000   1.0000   1.0000   1.0000   1.0000   1.0000
     1.0000   1.0000   1.0000   1.0000   1.0000   0.0000   0.0000   0.0000
     0.0000   0.0000   0.0000   0.0000   0.0000   0.0000   0.0000   0.0000
     0.0000   0.0000   0.0000   0.0000   0.0000   0.0000   0.0000   0.0000
     0.0000   0.0000   0.0000   0.0000   0.0000   0.0000   0.0000   0.0000
     0.0000   0.0000   0.0000   0.0000   0.0000   0.0000   0.0000   0.0000
     0.0000   0.0000   0.0000   0.0000   0.0000   0.0000   0.0000   0.0000
     0.0000   0.0000   0.0000   0.0000   0.0000   0.0000   0.0000   0.0000
     0.0000   0.0000   0.0000   0.0000   0.0000   0.0000   0.0000   0.0000
     0.0000   0.0000   0.0000   0.0000   0.0000   0.0000   0.0000   0.0000
     0.0000   0.0000   0.0000   0.0000   0.0000   0.0000   0.0000   0.0000
     0.0000   0.0000   0.0000   0.0000   0.0000   0.0000   0.0000   0.0000
     0.0000   0.0000   0.0000   0.0000   0.0000   0.0000   0.0000   0.0000
     0.0000   0.0000   0.0000   0.0000   0.0000   0.0000   0.0000   0.0000
     0.0000   0.0000   0.0000   0.0000   0.0000   0.0000   0.0000   0.0000
     0.0000   0.0000   0.0000   0.0000   0.0000   0.0000   0.0000   0.0000
     0.0000   0.0000   0.0000   0.0000   0.0000   0.0000   0.0000   0.0000
     0.0000   0.0000   0.0000   0.0000   0.0000   0.0000   0.0000   0.0000
     0.0000   0.0000   0.0000   0.0000   0.0000   0.0000   0.0000   0.0000
     0.0000   0.0000   0.0000   0.0000   0.0000   0.0000   0.0000   0.0000
     0.0000   0.0000   0.0000   0.0000   0.0000   0.0000   0.0000   0.0000
     0.0000   0.0000   0.0000   0.0000   0.0000   0.0000   0.0000   0.0000
     0.0000   0.0000   0.0000   0.0000   0.0000   0.0000   0.0000   0.0000
     0.0000   0.0000   0.0000   0.0000   0.0000   0.0000   0.0000   0.0000
     0.0000   0.0000   0.0000   0.0000   0.0000   0.0000   0.0000   0.0000

          k = 0.3333 0.5774 0.0000 ( 14760 PWs)   bands (ev):

   -66.6359 -40.9511 -40.9015 -40.7929 -17.8780 -17.8510 -11.5515 -10.6852
   -10.1613  -9.5343  -8.9087  -8.1401  -5.9679  -4.1722  -2.9074  -2.2585
    -0.8498   1.3294   1.6225   3.6472   4.6241   5.3770   5.7155   5.9564
     6.0308   6.3957   6.9615   7.2042   7.4682   7.4752   7.4977   7.8343
     8.4001   9.1756   9.4455   9.6624   9.8720  10.5444  10.9174  11.6855
    12.5931  12.8428  13.4609  13.4612  13.7819  14.1788  14.5919  16.0058
    17.4653  17.6861  17.8678  17.9986  18.1290  19.0141  19.0536  19.5871
    19.6541  20.1114  20.9582  21.2112  21.3387  21.4302  22.0196  22.0666
    22.4084  22.6408  23.6631  23.6817  23.8096  23.8475  23.9413  25.2312
    25.4198  25.9623  26.4365  26.6631  26.6959  26.9251  27.2222  27.2951
    27.4184  27.7462  27.8247  27.9503  28.7132  29.0363  29.1043  29.1448
    29.4365  29.6292  30.3035  30.4330  30.5371  30.8772  31.0657  31.6232
    31.9268  32.2192  32.5478  32.5825  32.5913  33.1113  33.1393  33.1459
    33.5435  33.6334  34.5656  34.8474  35.1378  35.8077  35.8245  35.9971
    36.7263  36.7319  36.8057  36.8949  37.7251  37.9868  38.3851  38.5768
    38.6932  38.7785  39.0529  39.2963  39.4073  39.4540  39.5638  40.8370
    41.4152  41.8542  42.0584  42.3585  42.5838  42.6459  43.0939  43.1162
    43.5406  43.7392  43.8047  44.2490  44.8491  45.1235  45.4550  45.6401
    45.6725  45.7755  45.8379  46.0037  46.0096  46.1245  46.3317  46.8495
    46.9016  47.0565  47.0680  47.0689  47.2275  47.6927  47.7204  47.8847
    48.1434  48.2432  48.3561  48.4359  48.6112  48.6178  48.8055  48.9165
    49.1309  49.1580  49.5906  49.6923  49.9502  50.0727  50.1710  50.3971
    50.6425  50.7079  50.9291  51.2353  51.2920  51.3786  51.6078  51.8101
    51.8444  52.0891  52.1555  52.6137  52.6265  52.6444  53.0445  53.0448
    53.1263  53.2991  53.4657  54.0064  54.1376  54.4760  54.6090  54.7051

     occupation numbers 
     1.0000   1.0000   1.0000   1.0000   1.0000   1.0000   1.0000   1.0000
     1.0000   1.0000   1.0000   1.0000   1.0000   0.0000   0.0000   0.0000
     0.0000   0.0000   0.0000   0.0000   0.0000   0.0000   0.0000   0.0000
     0.0000   0.0000   0.0000   0.0000   0.0000   0.0000   0.0000   0.0000
     0.0000   0.0000   0.0000   0.0000   0.0000   0.0000   0.0000   0.0000
     0.0000   0.0000   0.0000   0.0000   0.0000   0.0000   0.0000   0.0000
     0.0000   0.0000   0.0000   0.0000   0.0000   0.0000   0.0000   0.0000
     0.0000   0.0000   0.0000   0.0000   0.0000   0.0000   0.0000   0.0000
     0.0000   0.0000   0.0000   0.0000   0.0000   0.0000   0.0000   0.0000
     0.0000   0.0000   0.0000   0.0000   0.0000   0.0000   0.0000   0.0000
     0.0000   0.0000   0.0000   0.0000   0.0000   0.0000   0.0000   0.0000
     0.0000   0.0000   0.0000   0.0000   0.0000   0.0000   0.0000   0.0000
     0.0000   0.0000   0.0000   0.0000   0.0000   0.0000   0.0000   0.0000
     0.0000   0.0000   0.0000   0.0000   0.0000   0.0000   0.0000   0.0000
     0.0000   0.0000   0.0000   0.0000   0.0000   0.0000   0.0000   0.0000
     0.0000   0.0000   0.0000   0.0000   0.0000   0.0000   0.0000   0.0000
     0.0000   0.0000   0.0000   0.0000   0.0000   0.0000   0.0000   0.0000
     0.0000   0.0000   0.0000   0.0000   0.0000   0.0000   0.0000   0.0000
     0.0000   0.0000   0.0000   0.0000   0.0000   0.0000   0.0000   0.0000
     0.0000   0.0000   0.0000   0.0000   0.0000   0.0000   0.0000   0.0000
     0.0000   0.0000   0.0000   0.0000   0.0000   0.0000   0.0000   0.0000
     0.0000   0.0000   0.0000   0.0000   0.0000   0.0000   0.0000   0.0000
     0.0000   0.0000   0.0000   0.0000   0.0000   0.0000   0.0000   0.0000
     0.0000   0.0000   0.0000   0.0000   0.0000   0.0000   0.0000   0.0000
     0.0000   0.0000   0.0000   0.0000   0.0000   0.0000   0.0000   0.0000

     highest occupied, lowest unoccupied level (ev):    -5.9679   -4.1722

     Writing config to output data dir ./_ph0/MoS2.save/ :
     XML data file

     default                                                                    

     bravais-lattice index     =            4
     lattice parameter (alat)  =       5.9413  a.u.
     unit-cell volume          =    1222.6725 (a.u.)^3
     number of atoms/cell      =            3
     number of atomic types    =            2
     kinetic-energy cut-off    =      80.0000  Ry
     charge density cut-off    =     800.0000  Ry
     convergence threshold     =      1.0E-12
     beta                      =       0.7000
     number of iterations used =            4
     Exchange-correlation= PBESOL
                           (   1   4  10   8   0   0   0)


     celldm(1)=    5.94125  celldm(2)=    0.00000  celldm(3)=    6.73201
     celldm(4)=    0.00000  celldm(5)=    0.00000  celldm(6)=    0.00000

     crystal axes: (cart. coord. in units of alat)
               a(1) = (  1.0000  0.0000  0.0000 )  
               a(2) = ( -0.5000  0.8660  0.0000 )  
               a(3) = (  0.0000  0.0000  6.7320 )  

     reciprocal axes: (cart. coord. in units 2 pi/alat)
               b(1) = (  1.0000  0.5774 -0.0000 )  
               b(2) = (  0.0000  1.1547  0.0000 )  
               b(3) = (  0.0000 -0.0000  0.1485 )  


     Atoms inside the unit cell: 

     Cartesian axes

     site n.  atom      mass           positions (alat units)
        1  Mo     95.9500   tau(    1) = (    0.00000    0.57735    3.36601  )
        2  S      32.0650   tau(    2) = (    0.50000    0.28868    3.86143  )
        3  S      32.0650   tau(    3) = (    0.50000    0.28868    2.87059  )

     Computing dynamical matrix for 
                    q = (   0.0000000   0.0000000   0.0000000 )

     13 Sym.Ops. (with q -> -q+G )

                                    s                        frac. trans.

      isym =  1     identity                                     

 cryst.   s( 1) = (     1          0          0      )
                  (     0          1          0      )
                  (     0          0          1      )

 cart.    s( 1) = (  1.0000000  0.0000000  0.0000000 )
                  (  0.0000000  1.0000000  0.0000000 )
                  (  0.0000000  0.0000000  1.0000000 )


      isym =  2     180 deg rotation - cart. axis [0,1,0]        

 cryst.   s( 2) = (    -1          0          0      )
                  (     1          1          0      )
                  (     0          0         -1      )

 cart.    s( 2) = ( -1.0000000  0.0000000  0.0000000 )
                  (  0.0000000  1.0000000  0.0000000 )
                  (  0.0000000  0.0000000 -1.0000000 )


      isym =  3     120 deg rotation - cryst. axis [0,0,1]       

 cryst.   s( 3) = (     0          1          0      )
                  (    -1         -1          0      )
                  (     0          0          1      )

 cart.    s( 3) = ( -0.5000000 -0.8660254  0.0000000 )
                  (  0.8660254 -0.5000000  0.0000000 )
                  (  0.0000000  0.0000000  1.0000000 )


      isym =  4     120 deg rotation - cryst. axis [0,0,-1]      

 cryst.   s( 4) = (    -1         -1          0      )
                  (     1          0          0      )
                  (     0          0          1      )

 cart.    s( 4) = ( -0.5000000  0.8660254  0.0000000 )
                  ( -0.8660254 -0.5000000  0.0000000 )
                  (  0.0000000  0.0000000  1.0000000 )


      isym =  5     180 deg rotation - cryst. axis [1,-1,0]      

 cryst.   s( 5) = (     0         -1          0      )
                  (    -1          0          0      )
                  (     0          0         -1      )

 cart.    s( 5) = (  0.5000000 -0.8660254  0.0000000 )
                  ( -0.8660254 -0.5000000  0.0000000 )
                  (  0.0000000  0.0000000 -1.0000000 )


      isym =  6     180 deg rotation - cryst. axis [2,1,0]       

 cryst.   s( 6) = (     1          1          0      )
                  (     0         -1          0      )
                  (     0          0         -1      )

 cart.    s( 6) = (  0.5000000  0.8660254  0.0000000 )
                  (  0.8660254 -0.5000000  0.0000000 )
                  (  0.0000000  0.0000000 -1.0000000 )


      isym =  7     inv. 180 deg rotation - cart. axis [0,0,1]   

 cryst.   s( 7) = (     1          0          0      )
                  (     0          1          0      )
                  (     0          0         -1      )

 cart.    s( 7) = (  1.0000000  0.0000000  0.0000000 )
                  (  0.0000000  1.0000000  0.0000000 )
                  (  0.0000000  0.0000000 -1.0000000 )


      isym =  8     inv. 180 deg rotation - cart. axis [1,0,0]   

 cryst.   s( 8) = (    -1          0          0      )
                  (     1          1          0      )
                  (     0          0          1      )

 cart.    s( 8) = ( -1.0000000  0.0000000  0.0000000 )
                  (  0.0000000  1.0000000  0.0000000 )
                  (  0.0000000  0.0000000  1.0000000 )


      isym =  9     inv.  60 deg rotation - cryst. axis [0,0,1]  

 cryst.   s( 9) = (    -1         -1          0      )
                  (     1          0          0      )
                  (     0          0         -1      )

 cart.    s( 9) = ( -0.5000000  0.8660254  0.0000000 )
                  ( -0.8660254 -0.5000000  0.0000000 )
                  (  0.0000000  0.0000000 -1.0000000 )


      isym = 10     inv.  60 deg rotation - cryst. axis [0,0,-1] 

 cryst.   s(10) = (     0          1          0      )
                  (    -1         -1          0      )
                  (     0          0         -1      )

 cart.    s(10) = ( -0.5000000 -0.8660254  0.0000000 )
                  (  0.8660254 -0.5000000  0.0000000 )
                  (  0.0000000  0.0000000 -1.0000000 )


      isym = 11     inv. 180 deg rotation - cryst. axis [0,1,0]  

 cryst.   s(11) = (     1          1          0      )
                  (     0         -1          0      )
                  (     0          0          1      )

 cart.    s(11) = (  0.5000000  0.8660254  0.0000000 )
                  (  0.8660254 -0.5000000  0.0000000 )
                  (  0.0000000  0.0000000  1.0000000 )


      isym = 12     inv. 180 deg rotation - cryst. axis [1,1,0]  

 cryst.   s(12) = (     0         -1          0      )
                  (    -1          0          0      )
                  (     0          0          1      )

 cart.    s(12) = (  0.5000000 -0.8660254  0.0000000 )
                  ( -0.8660254 -0.5000000  0.0000000 )
                  (  0.0000000  0.0000000  1.0000000 )


     This transformation sends q -> -q+G

      isym = 13     identity                                     

 cryst.   s(13) = (     1          0          0      )
                  (     0          1          0      )
                  (     0          0          1      )

 cart.    s(13) = (  1.0000000  0.0000000  0.0000000 )
                  (  0.0000000  1.0000000  0.0000000 )
                  (  0.0000000  0.0000000  1.0000000 )


     G cutoff =  715.2972  (   3651 G-vectors)     FFT grid: ( 54, 54,375)
     G cutoff =  286.1189  (    922 G-vectors)  smooth grid: ( 36, 36,240)
     number of k points=     7
                       cart. coord. in units 2pi/alat
        k(    1) = (   0.0000000   0.0000000   0.0000000), wk =   0.0555556
        k(    2) = (   0.0000000   0.1924501   0.0000000), wk =   0.3333333
        k(    3) = (   0.0000000   0.3849002   0.0000000), wk =   0.3333333
        k(    4) = (   0.0000000  -0.5773503   0.0000000), wk =   0.1666667
        k(    5) = (   0.1666667   0.2886751   0.0000000), wk =   0.3333333
        k(    6) = (   0.1666667   0.4811252   0.0000000), wk =   0.6666667
        k(    7) = (   0.3333333   0.5773503   0.0000000), wk =   0.1111111

                       cryst. coord.
        k(    1) = (   0.0000000   0.0000000   0.0000000), wk =   0.0555556
        k(    2) = (   0.0000000   0.1666667   0.0000000), wk =   0.3333333
        k(    3) = (   0.0000000   0.3333333   0.0000000), wk =   0.3333333
        k(    4) = (   0.0000000  -0.5000000   0.0000000), wk =   0.1666667
        k(    5) = (   0.1666667   0.1666667   0.0000000), wk =   0.3333333
        k(    6) = (   0.1666667   0.3333333   0.0000000), wk =   0.6666667
        k(    7) = (   0.3333333   0.3333333   0.0000000), wk =   0.1111111

     PseudoPot. # 1 for Mo read from file:
     ../../pseudo/Mo.pbesol.dojo.upf
     MD5 check sum: c40353276b9086539cda6b9e5a66907b
     Pseudo is Norm-conserving + core correction, Zval = 14.0
     Generated using ONCVPSP code by D. R. Hamann
     Using radial grid of 1640 points,  6 beta functions with: 
                l(1) =   0
                l(2) =   0
                l(3) =   1
                l(4) =   1
                l(5) =   2
                l(6) =   2

     PseudoPot. # 2 for S  read from file:
     ../../pseudo/S.pbesol.dojo.upf
     MD5 check sum: 501737efeeef1fb1c631cda521d4e019
     Pseudo is Norm-conserving + core correction, Zval =  6.0
     Generated using ONCVPSP code by D. R. Hamann
     Using radial grid of 1146 points,  6 beta functions with: 
                l(1) =   0
                l(2) =   0
                l(3) =   1
                l(4) =   1
                l(5) =   2
                l(6) =   2

     point group D_3h (-62m)
     there are  6 classes
     the character table:

       E     2C3   3C2   s_h   2S3   3s_v 
A'_1   1.00  1.00  1.00  1.00  1.00  1.00
A'_2   1.00  1.00 -1.00  1.00  1.00 -1.00
E'     2.00 -1.00  0.00  2.00 -1.00  0.00
A''1   1.00  1.00  1.00 -1.00 -1.00 -1.00
A''2   1.00  1.00 -1.00 -1.00 -1.00  1.00
E''    2.00 -1.00  0.00 -2.00  1.00  0.00

     the symmetry operations in each class and the name of the first element:

     E        1
          identity                                               
     2C3      3    4
          120 deg rotation - cryst. axis [0,0,1]                 
     3C2      2    6    5
          180 deg rotation - cart. axis [0,1,0]                  
     s_h      7
          inv. 180 deg rotation - cart. axis [0,0,1]             
     2S3      9   10
          inv.  60 deg rotation - cryst. axis [0,0,1]            
     3s_v     8   11   12
          inv. 180 deg rotation - cart. axis [1,0,0]             


     Atomic displacements:
     There are    6 irreducible representations

     Representation     1      1 modes -  To be done
     Irreps are as follows:

                     mode #   1
                     (   0.00000  -0.00000   ) 
                     (   0.00000  -0.00000   ) 
                     (   0.00000  -0.00000   ) 
                     (  -0.00000  -0.00000   ) 
                     (  -0.00000  -0.00000   ) 
                     (  -0.70711  -0.00000   ) 
                     (  -0.00000  -0.00000   ) 
                     (   0.00000  -0.00000   ) 
                     (   0.70711  -0.00000   ) 

     Representation     2      2 modes -  To be done
     Irreps are as follows:

           mode #   2                           mode #   3
           (  -0.00000  -0.00000   )            (  -0.00000  -0.00000   ) 
           (  -0.00000  -0.00000   )            (  -0.00000  -0.00000   ) 
           (  -0.00000  -0.00000   )            (  -0.00000  -0.00000   ) 
           (  -0.00133  -0.00000   )            (  -0.70711  -0.00000   ) 
           (   0.70711  -0.00000   )            (  -0.00133  -0.00000   ) 
           (  -0.00000   0.00000   )            (   0.00000   0.00000   ) 
           (  -0.00133  -0.00000   )            (  -0.70711  -0.00000   ) 
           (   0.70711  -0.00000   )            (  -0.00133  -0.00000   ) 
           (  -0.00000  -0.00000   )            (  -0.00000  -0.00000   ) 

     Representation     3      2 modes -  To be done
     Irreps are as follows:

           mode #   4                           mode #   5
           (  -0.00016  -0.00000   )            (  -1.00000  -0.00000   ) 
           (   1.00000  -0.00000   )            (  -0.00016  -0.00000   ) 
           (  -0.00000  -0.00000   )            (  -0.00000   0.00000   ) 
           (  -0.00000  -0.00000   )            (  -0.00000   0.00000   ) 
           (  -0.00000  -0.00000   )            (  -0.00000   0.00000   ) 
           (  -0.00000  -0.00000   )            (  -0.00000   0.00000   ) 
           (  -0.00000  -0.00000   )            (  -0.00000   0.00000   ) 
           (  -0.00000  -0.00000   )            (  -0.00000   0.00000   ) 
           (  -0.00000  -0.00000   )            (  -0.00000   0.00000   ) 

     Representation     4      1 modes -  To be done
     Irreps are as follows:

                     mode #   6
                     (  -0.00000  -0.00000   ) 
                     (  -0.00000  -0.00000   ) 
                     (  -1.00000  -0.00000   ) 
                     (  -0.00000  -0.00000   ) 
                     (  -0.00000  -0.00000   ) 
                     (  -0.00000  -0.00000   ) 
                     (  -0.00000  -0.00000   ) 
                     (  -0.00000  -0.00000   ) 
                     (  -0.00000  -0.00000   ) 

     Representation     5      1 modes -  To be done
     Irreps are as follows:

                     mode #   7
                     (  -0.00000  -0.00000   ) 
                     (  -0.00000  -0.00000   ) 
                     (  -0.00000  -0.00000   ) 
                     (  -0.00000  -0.00000   ) 
                     (  -0.00000  -0.00000   ) 
                     (  -0.70711  -0.00000   ) 
                     (  -0.00000  -0.00000   ) 
                     (   0.00000  -0.00000   ) 
                     (  -0.70711  -0.00000   ) 

     Representation     6      2 modes -  To be done
     Irreps are as follows:

           mode #   8                           mode #   9
           (  -0.00000   0.00000   )            (  -0.00000   0.00000   ) 
           (  -0.00000   0.00000   )            (  -0.00000   0.00000   ) 
           (  -0.00000   0.00000   )            (  -0.00000   0.00000   ) 
           (  -0.70711  -0.00000   )            (  -0.00061  -0.00000   ) 
           (   0.00061   0.00000   )            (  -0.70711  -0.00000   ) 
           (   0.00000   0.00000   )            (   0.00000   0.00000   ) 
           (   0.70711   0.00000   )            (   0.00061   0.00000   ) 
           (  -0.00061  -0.00000   )            (   0.70711   0.00000   ) 
           (  -0.00000   0.00000   )            (  -0.00000   0.00000   ) 


     PHONON       :   1m37.04s CPU   1m39.79s WALL

     Reading dVscf from file MoS2-dvscf1_

     Diagonalizing the dynamical matrix

     q = (    0.000000000   0.000000000   0.000000000 ) 

 **************************************************************************
     freq (    1) =      -0.208661 [THz] =      -6.960177 [cm-1]
     freq (    2) =      -0.208661 [THz] =      -6.960177 [cm-1]
     freq (    3) =       0.169741 [THz] =       5.661950 [cm-1]
     freq (    4) =       8.557990 [THz] =     285.463817 [cm-1]
     freq (    5) =       8.557990 [THz] =     285.463817 [cm-1]
     freq (    6) =      11.580487 [THz] =     386.283455 [cm-1]
     freq (    7) =      11.580487 [THz] =     386.283455 [cm-1]
     freq (    8) =      12.185275 [THz] =     406.457020 [cm-1]
     freq (    9) =      14.148903 [THz] =     471.956598 [cm-1]
 **************************************************************************
     electron-phonon interaction (to be used in YAMBO)  ...


     Calculation of q =   -0.0000000  -0.1924500   0.0000000

     Parallelization info
     --------------------
     sticks:   dense  smooth     PW     G-vecs:    dense   smooth      PW
     Min          15       6      1                 3631      892     117
     Max          16       7      2                 3664      942     170
     Sum        1945     769    235               467365   117995   19163

     Using Slab Decomposition


     Title: 
     default                                                                    


     bravais-lattice index     =            4
     lattice parameter (alat)  =       5.9413  a.u.
     unit-cell volume          =    1222.6725 (a.u.)^3
     number of atoms/cell      =            3
     number of atomic types    =            2
     number of electrons       =        26.00
     number of Kohn-Sham states=          200
     kinetic-energy cutoff     =      80.0000  Ry
     charge density cutoff     =     800.0000  Ry
     Exchange-correlation= PBESOL
                           (   1   4  10   8   0   0   0)

     celldm(1)=   5.941254  celldm(2)=   0.000000  celldm(3)=   6.732015
     celldm(4)=   0.000000  celldm(5)=   0.000000  celldm(6)=   0.000000

     crystal axes: (cart. coord. in units of alat)
               a(1) = (   1.000000   0.000000   0.000000 )  
               a(2) = (  -0.500000   0.866025   0.000000 )  
               a(3) = (   0.000000   0.000000   6.732015 )  

     reciprocal axes: (cart. coord. in units 2 pi/alat)
               b(1) = (  1.000000  0.577350 -0.000000 )  
               b(2) = (  0.000000  1.154701  0.000000 )  
               b(3) = (  0.000000 -0.000000  0.148544 )  


     PseudoPot. # 1 for Mo read from file:
     ../../pseudo/Mo.pbesol.dojo.upf
     MD5 check sum: c40353276b9086539cda6b9e5a66907b
     Pseudo is Norm-conserving + core correction, Zval = 14.0
     Generated using ONCVPSP code by D. R. Hamann
     Using radial grid of 1640 points,  6 beta functions with: 
                l(1) =   0
                l(2) =   0
                l(3) =   1
                l(4) =   1
                l(5) =   2
                l(6) =   2

     PseudoPot. # 2 for S  read from file:
     ../../pseudo/S.pbesol.dojo.upf
     MD5 check sum: 501737efeeef1fb1c631cda521d4e019
     Pseudo is Norm-conserving + core correction, Zval =  6.0
     Generated using ONCVPSP code by D. R. Hamann
     Using radial grid of 1146 points,  6 beta functions with: 
                l(1) =   0
                l(2) =   0
                l(3) =   1
                l(4) =   1
                l(5) =   2
                l(6) =   2

     atomic species   valence    mass     pseudopotential
     Mo               14.00    95.95000     Mo( 1.00)
     S                 6.00    32.06500     S ( 1.00)

     12 Sym. Ops. (no inversion) found


                                    s                        frac. trans.

      isym =  1     identity                                     

 cryst.   s( 1) = (     1          0          0      )
                  (     0          1          0      )
                  (     0          0          1      )

 cart.    s( 1) = (  1.0000000 -0.0000000  0.0000000 )
                  (  0.0000000  1.0000000  0.0000000 )
                  (  0.0000000  0.0000000  1.0000000 )


      isym =  2     180 deg rotation - cart. axis [0,1,0]        

 cryst.   s( 2) = (    -1          0          0      )
                  (     1          1          0      )
                  (     0          0         -1      )

 cart.    s( 2) = ( -1.0000000  0.0000000  0.0000000 )
                  (  0.0000000  1.0000000  0.0000000 )
                  (  0.0000000  0.0000000 -1.0000000 )


      isym =  3     inv. 180 deg rotation - cart. axis [0,0,1]   

 cryst.   s( 3) = (     1          0          0      )
                  (     0          1          0      )
                  (     0          0         -1      )

 cart.    s( 3) = (  1.0000000 -0.0000000  0.0000000 )
                  (  0.0000000  1.0000000  0.0000000 )
                  (  0.0000000  0.0000000 -1.0000000 )


      isym =  4     inv. 180 deg rotation - cart. axis [1,0,0]   

 cryst.   s( 4) = (    -1          0          0      )
                  (     1          1          0      )
                  (     0          0          1      )

 cart.    s( 4) = ( -1.0000000  0.0000000  0.0000000 )
                  (  0.0000000  1.0000000  0.0000000 )
                  (  0.0000000  0.0000000  1.0000000 )


      isym =  5     180 deg rotation - cryst. axis [1,-1,0]      

 cryst.   s( 5) = (     0         -1          0      )
                  (    -1          0          0      )
                  (     0          0         -1      )

 cart.    s( 5) = (  0.5000000 -0.8660254  0.0000000 )
                  ( -0.8660254 -0.5000000  0.0000000 )
                  (  0.0000000  0.0000000 -1.0000000 )


      isym =  6     180 deg rotation - cryst. axis [2,1,0]       

 cryst.   s( 6) = (     1          1          0      )
                  (     0         -1          0      )
                  (     0          0         -1      )

 cart.    s( 6) = (  0.5000000  0.8660254  0.0000000 )
                  (  0.8660254 -0.5000000  0.0000000 )
                  (  0.0000000  0.0000000 -1.0000000 )


      isym =  7     120 deg rotation - cryst. axis [0,0,1]       

 cryst.   s( 7) = (     0          1          0      )
                  (    -1         -1          0      )
                  (     0          0          1      )

 cart.    s( 7) = ( -0.5000000 -0.8660254  0.0000000 )
                  (  0.8660254 -0.5000000  0.0000000 )
                  (  0.0000000  0.0000000  1.0000000 )


      isym =  8     120 deg rotation - cryst. axis [0,0,-1]      

 cryst.   s( 8) = (    -1         -1          0      )
                  (     1          0          0      )
                  (     0          0          1      )

 cart.    s( 8) = ( -0.5000000  0.8660254  0.0000000 )
                  ( -0.8660254 -0.5000000  0.0000000 )
                  (  0.0000000  0.0000000  1.0000000 )


      isym =  9     inv.  60 deg rotation - cryst. axis [0,0,1]  

 cryst.   s( 9) = (    -1         -1          0      )
                  (     1          0          0      )
                  (     0          0         -1      )

 cart.    s( 9) = ( -0.5000000  0.8660254  0.0000000 )
                  ( -0.8660254 -0.5000000  0.0000000 )
                  (  0.0000000  0.0000000 -1.0000000 )


      isym = 10     inv.  60 deg rotation - cryst. axis [0,0,-1] 

 cryst.   s(10) = (     0          1          0      )
                  (    -1         -1          0      )
                  (     0          0         -1      )

 cart.    s(10) = ( -0.5000000 -0.8660254  0.0000000 )
                  (  0.8660254 -0.5000000  0.0000000 )
                  (  0.0000000  0.0000000 -1.0000000 )


      isym = 11     inv. 180 deg rotation - cryst. axis [0,1,0]  

 cryst.   s(11) = (     1          1          0      )
                  (     0         -1          0      )
                  (     0          0          1      )

 cart.    s(11) = (  0.5000000  0.8660254  0.0000000 )
                  (  0.8660254 -0.5000000  0.0000000 )
                  (  0.0000000  0.0000000  1.0000000 )


      isym = 12     inv. 180 deg rotation - cryst. axis [1,1,0]  

 cryst.   s(12) = (     0         -1          0      )
                  (    -1          0          0      )
                  (     0          0          1      )

 cart.    s(12) = (  0.5000000 -0.8660254  0.0000000 )
                  ( -0.8660254 -0.5000000  0.0000000 )
                  (  0.0000000  0.0000000  1.0000000 )


     point group D_3h (-62m)
     there are  6 classes
     the character table:

       E     2C3   3C2   s_h   2S3   3s_v 
A'_1   1.00  1.00  1.00  1.00  1.00  1.00
A'_2   1.00  1.00 -1.00  1.00  1.00 -1.00
E'     2.00 -1.00  0.00  2.00 -1.00  0.00
A''1   1.00  1.00  1.00 -1.00 -1.00 -1.00
A''2   1.00  1.00 -1.00 -1.00 -1.00  1.00
E''    2.00 -1.00  0.00 -2.00  1.00  0.00

     the symmetry operations in each class and the name of the first element:

     E        1
          identity                                               
     2C3      7    8
          120 deg rotation - cryst. axis [0,0,1]                 
     3C2      2    6    5
          180 deg rotation - cart. axis [0,1,0]                  
     s_h      3
          inv. 180 deg rotation - cart. axis [0,0,1]             
     2S3      9   10
          inv.  60 deg rotation - cryst. axis [0,0,1]            
     3s_v     4   11   12
          inv. 180 deg rotation - cart. axis [1,0,0]             

   Cartesian axes

     site n.     atom                  positions (alat units)
         1        Mo     tau(   1) = (   0.0000000   0.5773502   3.3660074  )
         2        S      tau(   2) = (   0.5000000   0.2886751   3.8614288  )
         3        S      tau(   3) = (   0.5000000   0.2886751   2.8705860  )

   Crystallographic axes

     site n.     atom                  positions (cryst. coord.)
         1        Mo     tau(   1) = (  0.3333333  0.6666666  0.5000000  )
         2        S      tau(   2) = (  0.6666667  0.3333333  0.5735918  )
         3        S      tau(   3) = (  0.6666667  0.3333333  0.4264082  )

     number of k points=    42
                       cart. coord. in units 2pi/alat
        k(    1) = (   0.0000000   0.0000000   0.0000000), wk =   0.0555556
        k(    2) = (  -0.0000000  -0.1924500   0.0000000), wk =   0.0000000
        k(    3) = (   0.0000000   0.1924501   0.0000000), wk =   0.0555556
        k(    4) = (  -0.0000000   0.0000001   0.0000000), wk =   0.0000000
        k(    5) = (   0.0000000   0.3849002   0.0000000), wk =   0.0555556
        k(    6) = (  -0.0000000   0.1924502   0.0000000), wk =   0.0000000
        k(    7) = (   0.0000000  -0.5773503   0.0000000), wk =   0.0555556
        k(    8) = (  -0.0000000  -0.7698003   0.0000000), wk =   0.0000000
        k(    9) = (   0.1666667   0.2886751   0.0000000), wk =   0.1111111
        k(   10) = (   0.1666667   0.0962251   0.0000000), wk =   0.0000000
        k(   11) = (   0.1666667   0.4811252   0.0000000), wk =   0.1111111
        k(   12) = (   0.1666667   0.2886752   0.0000000), wk =   0.0000000
        k(   13) = (   0.3333333   0.5773503   0.0000000), wk =   0.1111111
        k(   14) = (   0.3333333   0.3849003   0.0000000), wk =   0.0000000
        k(   15) = (  -0.1666667  -0.0962250   0.0000000), wk =   0.1111111
        k(   16) = (  -0.1666667  -0.2886750   0.0000000), wk =   0.0000000
        k(   17) = (   0.0000000  -0.1924501   0.0000000), wk =   0.0555556
        k(   18) = (  -0.0000000  -0.3849001   0.0000000), wk =   0.0000000
        k(   19) = (  -0.1666667   0.0962250   0.0000000), wk =   0.1111111
        k(   20) = (  -0.1666667  -0.0962250   0.0000000), wk =   0.0000000
        k(   21) = (  -0.3333333  -0.1924501   0.0000000), wk =   0.1111111
        k(   22) = (  -0.3333333  -0.3849001   0.0000000), wk =   0.0000000
        k(   23) = (   0.0000000  -0.3849002   0.0000000), wk =   0.0555556
        k(   24) = (  -0.0000000  -0.5773502   0.0000000), wk =   0.0000000
        k(   25) = (  -0.3333333   0.1924501   0.0000000), wk =   0.1111111
        k(   26) = (  -0.3333333   0.0000001   0.0000000), wk =   0.0000000
        k(   27) = (   0.5000000   0.2886751   0.0000000), wk =   0.1111111
        k(   28) = (   0.5000000   0.0962251   0.0000000), wk =   0.0000000
        k(   29) = (  -0.1666667  -0.2886751   0.0000000), wk =   0.1111111
        k(   30) = (  -0.1666667  -0.4811251   0.0000000), wk =   0.0000000
        k(   31) = (   0.3333333  -0.0000000   0.0000000), wk =   0.1111111
        k(   32) = (   0.3333333  -0.1924500   0.0000000), wk =   0.0000000
        k(   33) = (  -0.3333333  -0.3849002   0.0000000), wk =   0.1111111
        k(   34) = (  -0.3333333  -0.5773502   0.0000000), wk =   0.0000000
        k(   35) = (   0.5000000  -0.0962250   0.0000000), wk =   0.1111111
        k(   36) = (   0.5000000  -0.2886750   0.0000000), wk =   0.0000000
        k(   37) = (  -0.1666667  -0.4811252   0.0000000), wk =   0.1111111
        k(   38) = (  -0.1666667  -0.6735752   0.0000000), wk =   0.0000000
        k(   39) = (  -0.3333333   0.3849002   0.0000000), wk =   0.1111111
        k(   40) = (  -0.3333333   0.1924502   0.0000000), wk =   0.0000000
        k(   41) = (   0.5000000   0.0962250   0.0000000), wk =   0.1111111
        k(   42) = (   0.5000000  -0.0962250   0.0000000), wk =   0.0000000

                       cryst. coord.
        k(    1) = (   0.0000000   0.0000000   0.0000000), wk =   0.0555556
        k(    2) = (  -0.0000000  -0.1666666   0.0000000), wk =   0.0000000
        k(    3) = (   0.0000000   0.1666667   0.0000000), wk =   0.0555556
        k(    4) = (  -0.0000000   0.0000001   0.0000000), wk =   0.0000000
        k(    5) = (   0.0000000   0.3333333   0.0000000), wk =   0.0555556
        k(    6) = (  -0.0000000   0.1666667   0.0000000), wk =   0.0000000
        k(    7) = (   0.0000000  -0.5000000   0.0000000), wk =   0.0555556
        k(    8) = (  -0.0000000  -0.6666666   0.0000000), wk =   0.0000000
        k(    9) = (   0.1666667   0.1666667   0.0000000), wk =   0.1111111
        k(   10) = (   0.1666667   0.0000001   0.0000000), wk =   0.0000000
        k(   11) = (   0.1666667   0.3333333   0.0000000), wk =   0.1111111
        k(   12) = (   0.1666667   0.1666667   0.0000000), wk =   0.0000000
        k(   13) = (   0.3333333   0.3333333   0.0000000), wk =   0.1111111
        k(   14) = (   0.3333333   0.1666667   0.0000000), wk =   0.0000000
        k(   15) = (  -0.1666667   0.0000000   0.0000000), wk =   0.1111111
        k(   16) = (  -0.1666667  -0.1666666   0.0000000), wk =   0.0000000
        k(   17) = (   0.0000000  -0.1666667   0.0000000), wk =   0.0555556
        k(   18) = (  -0.0000000  -0.3333333   0.0000000), wk =   0.0000000
        k(   19) = (  -0.1666667   0.1666667   0.0000000), wk =   0.1111111
        k(   20) = (  -0.1666667   0.0000001   0.0000000), wk =   0.0000000
        k(   21) = (  -0.3333333   0.0000000   0.0000000), wk =   0.1111111
        k(   22) = (  -0.3333333  -0.1666666   0.0000000), wk =   0.0000000
        k(   23) = (   0.0000000  -0.3333333   0.0000000), wk =   0.0555556
        k(   24) = (  -0.0000000  -0.4999999   0.0000000), wk =   0.0000000
        k(   25) = (  -0.3333333   0.3333333   0.0000000), wk =   0.1111111
        k(   26) = (  -0.3333333   0.1666667   0.0000000), wk =   0.0000000
        k(   27) = (   0.5000000   0.0000000   0.0000000), wk =   0.1111111
        k(   28) = (   0.5000000  -0.1666666   0.0000000), wk =   0.0000000
        k(   29) = (  -0.1666667  -0.1666667   0.0000000), wk =   0.1111111
        k(   30) = (  -0.1666667  -0.3333333   0.0000000), wk =   0.0000000
        k(   31) = (   0.3333333  -0.1666667   0.0000000), wk =   0.1111111
        k(   32) = (   0.3333333  -0.3333333   0.0000000), wk =   0.0000000
        k(   33) = (  -0.3333333  -0.1666667   0.0000000), wk =   0.1111111
        k(   34) = (  -0.3333333  -0.3333333   0.0000000), wk =   0.0000000
        k(   35) = (   0.5000000  -0.3333333   0.0000000), wk =   0.1111111
        k(   36) = (   0.5000000  -0.4999999   0.0000000), wk =   0.0000000
        k(   37) = (  -0.1666667  -0.3333333   0.0000000), wk =   0.1111111
        k(   38) = (  -0.1666667  -0.4999999   0.0000000), wk =   0.0000000
        k(   39) = (  -0.3333333   0.5000000   0.0000000), wk =   0.1111111
        k(   40) = (  -0.3333333   0.3333334   0.0000000), wk =   0.0000000
        k(   41) = (   0.5000000  -0.1666667   0.0000000), wk =   0.1111111
        k(   42) = (   0.5000000  -0.3333333   0.0000000), wk =   0.0000000

     Dense  grid:   467365 G-vectors     FFT dimensions: (  54,  54, 375)

     Smooth grid:   117995 G-vectors     FFT dimensions: (  36,  36, 240)

     Dynamical RAM for                 wfc:       0.35 MB

     Dynamical RAM for     wfc (w. buffer):       0.35 MB

     Dynamical RAM for           str. fact:       0.11 MB

     Dynamical RAM for           local pot:       0.03 MB

     Dynamical RAM for          nlocal pot:       0.09 MB

     Dynamical RAM for                qrad:       4.57 MB

     Dynamical RAM for          rho,v,vnew:       0.37 MB

     Dynamical RAM for           G-vectors:       0.22 MB

     Dynamical RAM for          h,s,v(r/c):       7.32 MB

     Dynamical RAM for          <psi|beta>:       0.16 MB

     Dynamical RAM for                 psi:       1.40 MB

     Dynamical RAM for                hpsi:       1.40 MB

     Dynamical RAM for      wfcinit/wfcrot:       1.62 MB

     Estimated static dynamical RAM per process >       6.24 MB

     Estimated max dynamical RAM per process >      16.54 MB

     Estimated total dynamical RAM >       2.07 GB
 ----2D----2D----2D----2D----2D----2D----2D----2D----2D----2D----2D----2D
  The code is running with the 2D cutoff
  Please refer to:
  Sohier, T., Calandra, M., & Mauri, F. (2017), 
  Density functional perturbation theory for gated two-dimensional heterostructures:
  Theoretical developments and application to flexural phonons in graphene.
  Physical Review B, 96(7), 75448. https://doi.org/10.1103/PhysRevB.96.075448
 ----2D----2D----2D----2D----2D----2D----2D----2D----2D----2D----2D----2D

     The potential is recalculated from file :
     ./_ph0/MoS2.save/charge-density

     Starting wfcs are   18 atomic +  182 random wfcs

     Band Structure Calculation
     Davidson diagonalization with overlap

     Computing kpt #:     1
     total cpu time spent up to now is      106.4 secs

     Computing kpt #:     2
     total cpu time spent up to now is      117.5 secs

     Computing kpt #:     3
     total cpu time spent up to now is      127.8 secs

     Computing kpt #:     4
     total cpu time spent up to now is      140.3 secs

     Computing kpt #:     5
     total cpu time spent up to now is      150.1 secs

     Computing kpt #:     6
     total cpu time spent up to now is      160.3 secs

     Computing kpt #:     7
     total cpu time spent up to now is      171.6 secs

     Computing kpt #:     8
     total cpu time spent up to now is      182.0 secs

     Computing kpt #:     9
     total cpu time spent up to now is      192.7 secs

     Computing kpt #:    10
     total cpu time spent up to now is      203.1 secs

     Computing kpt #:    11
     total cpu time spent up to now is      214.5 secs

     Computing kpt #:    12
     total cpu time spent up to now is      225.0 secs

     Computing kpt #:    13
     total cpu time spent up to now is      238.2 secs

     Computing kpt #:    14
     total cpu time spent up to now is      249.2 secs

     Computing kpt #:    15
     total cpu time spent up to now is      259.6 secs

     Computing kpt #:    16
     total cpu time spent up to now is      271.8 secs

     Computing kpt #:    17
     total cpu time spent up to now is      283.0 secs

     Computing kpt #:    18
     total cpu time spent up to now is      293.1 secs

     Computing kpt #:    19
     total cpu time spent up to now is      303.2 secs

     Computing kpt #:    20
     total cpu time spent up to now is      313.4 secs

     Computing kpt #:    21
     total cpu time spent up to now is      323.8 secs

     Computing kpt #:    22
     total cpu time spent up to now is      334.7 secs

     Computing kpt #:    23
     total cpu time spent up to now is      345.2 secs

     Computing kpt #:    24
     total cpu time spent up to now is      355.3 secs

     Computing kpt #:    25
     total cpu time spent up to now is      365.4 secs

     Computing kpt #:    26
     total cpu time spent up to now is      377.4 secs

     Computing kpt #:    27
     total cpu time spent up to now is      387.7 secs

     Computing kpt #:    28
     total cpu time spent up to now is      399.0 secs

     Computing kpt #:    29
     total cpu time spent up to now is      409.9 secs

     Computing kpt #:    30
     total cpu time spent up to now is      420.9 secs

     Computing kpt #:    31
     total cpu time spent up to now is      432.9 secs

     Computing kpt #:    32
     total cpu time spent up to now is      443.6 secs

     Computing kpt #:    33
     total cpu time spent up to now is      454.8 secs

     Computing kpt #:    34
     total cpu time spent up to now is      465.2 secs

     Computing kpt #:    35
     total cpu time spent up to now is      475.9 secs

     Computing kpt #:    36
     total cpu time spent up to now is      486.4 secs

     Computing kpt #:    37
     total cpu time spent up to now is      496.9 secs

     Computing kpt #:    38
     total cpu time spent up to now is      508.2 secs

     Computing kpt #:    39
     total cpu time spent up to now is      519.2 secs

     Computing kpt #:    40
     total cpu time spent up to now is      529.8 secs

     Computing kpt #:    41
     total cpu time spent up to now is      540.8 secs

     Computing kpt #:    42
     total cpu time spent up to now is      551.7 secs

     ethr =  3.85E-11,  avg # of iterations = 19.3

     total cpu time spent up to now is      551.7 secs

     End of band structure calculation

          k = 0.0000 0.0000 0.0000 ( 14855 PWs)   bands (ev):

   -66.6863 -40.8916 -40.6284 -40.6284 -20.1843 -18.8206 -11.7317  -8.5906
[...]
     0.0000   0.0000   0.0000   0.0000   0.0000   0.0000   0.0000   0.0000
     0.0000   0.0000   0.0000   0.0000   0.0000   0.0000   0.0000   0.0000
     0.0000   0.0000   0.0000   0.0000   0.0000   0.0000   0.0000   0.0000
     0.0000   0.0000   0.0000   0.0000   0.0000   0.0000   0.0000   0.0000
     0.0000   0.0000   0.0000   0.0000   0.0000   0.0000   0.0000   0.0000
     0.0000   0.0000   0.0000   0.0000   0.0000   0.0000   0.0000   0.0000
     0.0000   0.0000   0.0000   0.0000   0.0000   0.0000   0.0000   0.0000
     0.0000   0.0000   0.0000   0.0000   0.0000   0.0000   0.0000   0.0000
     0.0000   0.0000   0.0000   0.0000   0.0000   0.0000   0.0000   0.0000
     0.0000   0.0000   0.0000   0.0000   0.0000   0.0000   0.0000   0.0000
     0.0000   0.0000   0.0000   0.0000   0.0000   0.0000   0.0000   0.0000
     0.0000   0.0000   0.0000   0.0000   0.0000   0.0000   0.0000   0.0000
     0.0000   0.0000   0.0000   0.0000   0.0000   0.0000   0.0000   0.0000

     highest occupied, lowest unoccupied level (ev):    -5.9679   -4.1722

     Writing config to output data dir ./_ph0/MoS2.save/ :
     XML data file

     default                                                                    

     bravais-lattice index     =            4
     lattice parameter (alat)  =       5.9413  a.u.
     unit-cell volume          =    1222.6725 (a.u.)^3
     number of atoms/cell      =            3
     number of atomic types    =            2
     kinetic-energy cut-off    =      80.0000  Ry
     charge density cut-off    =     800.0000  Ry
     convergence threshold     =      1.0E-12
     beta                      =       0.7000
     number of iterations used =            4
     Exchange-correlation= PBESOL
                           (   1   4  10   8   0   0   0)


     celldm(1)=    5.94125  celldm(2)=    0.00000  celldm(3)=    6.73201
     celldm(4)=    0.00000  celldm(5)=    0.00000  celldm(6)=    0.00000

     crystal axes: (cart. coord. in units of alat)
               a(1) = (  1.0000  0.0000  0.0000 )  
               a(2) = ( -0.5000  0.8660  0.0000 )  
               a(3) = (  0.0000  0.0000  6.7320 )  

     reciprocal axes: (cart. coord. in units 2 pi/alat)
               b(1) = (  1.0000  0.5774 -0.0000 )  
               b(2) = (  0.0000  1.1547  0.0000 )  
               b(3) = (  0.0000 -0.0000  0.1485 )  


     Atoms inside the unit cell: 

     Cartesian axes

     site n.  atom      mass           positions (alat units)
        1  Mo     95.9500   tau(    1) = (    0.00000    0.57735    3.36601  )
        2  S      32.0650   tau(    2) = (    0.50000    0.28868    3.86143  )
        3  S      32.0650   tau(    3) = (    0.50000    0.28868    2.87059  )

     Computing dynamical matrix for 
                    q = (  -0.3333330  -0.5773500   0.0000000 )

      6 Sym.Ops. (no q -> -q+G )

                                    s                        frac. trans.

      isym =  1     identity                                     

 cryst.   s( 1) = (     1          0          0      )
                  (     0          1          0      )
                  (     0          0          1      )

 cart.    s( 1) = (  1.0000000 -0.0000000  0.0000000 )
                  (  0.0000000  1.0000000  0.0000000 )
                  (  0.0000000  0.0000000  1.0000000 )


      isym =  2     inv. 180 deg rotation - cart. axis [0,0,1]   

 cryst.   s( 2) = (     1          0          0      )
                  (     0          1          0      )
                  (     0          0         -1      )

 cart.    s( 2) = (  1.0000000 -0.0000000  0.0000000 )
                  (  0.0000000  1.0000000  0.0000000 )
                  (  0.0000000  0.0000000 -1.0000000 )


      isym =  3     120 deg rotation - cryst. axis [0,0,1]       

 cryst.   s( 3) = (     0          1          0      )
                  (    -1         -1          0      )
                  (     0          0          1      )

 cart.    s( 3) = ( -0.5000000 -0.8660254  0.0000000 )
                  (  0.8660254 -0.5000000  0.0000000 )
                  (  0.0000000  0.0000000  1.0000000 )


      isym =  4     120 deg rotation - cryst. axis [0,0,-1]      

 cryst.   s( 4) = (    -1         -1          0      )
                  (     1          0          0      )
                  (     0          0          1      )

 cart.    s( 4) = ( -0.5000000  0.8660254  0.0000000 )
                  ( -0.8660254 -0.5000000  0.0000000 )
                  (  0.0000000  0.0000000  1.0000000 )


      isym =  5     inv.  60 deg rotation - cryst. axis [0,0,1]  

 cryst.   s( 5) = (    -1         -1          0      )
                  (     1          0          0      )
                  (     0          0         -1      )

 cart.    s( 5) = ( -0.5000000  0.8660254  0.0000000 )
                  ( -0.8660254 -0.5000000  0.0000000 )
                  (  0.0000000  0.0000000 -1.0000000 )


      isym =  6     inv.  60 deg rotation - cryst. axis [0,0,-1] 

 cryst.   s( 6) = (     0          1          0      )
                  (    -1         -1          0      )
                  (     0          0         -1      )

 cart.    s( 6) = ( -0.5000000 -0.8660254  0.0000000 )
                  (  0.8660254 -0.5000000  0.0000000 )
                  (  0.0000000  0.0000000 -1.0000000 )


     G cutoff =  715.2972  (   3651 G-vectors)     FFT grid: ( 54, 54,375)
     G cutoff =  286.1189  (    918 G-vectors)  smooth grid: ( 36, 36,240)
     number of k points=    28
                       cart. coord. in units 2pi/alat
        k(    1) = (   0.0000000   0.0000000   0.0000000), wk =   0.0555556
        k(    2) = (  -0.3333330  -0.5773500   0.0000000), wk =   0.0000000
        k(    3) = (   0.0000000   0.1924501   0.0000000), wk =   0.1666667
        k(    4) = (  -0.3333330  -0.3848999   0.0000000), wk =   0.0000000
        k(    5) = (   0.0000000   0.3849002   0.0000000), wk =   0.1666667
        k(    6) = (  -0.3333330  -0.1924498   0.0000000), wk =   0.0000000
        k(    7) = (   0.0000000  -0.5773503   0.0000000), wk =   0.1666667
        k(    8) = (  -0.3333330  -1.1547003   0.0000000), wk =   0.0000000
        k(    9) = (   0.1666667   0.2886751   0.0000000), wk =   0.1666667
        k(   10) = (  -0.1666663  -0.2886749   0.0000000), wk =   0.0000000
        k(   11) = (   0.1666667   0.4811252   0.0000000), wk =   0.1666667
        k(   12) = (  -0.1666663  -0.0962248   0.0000000), wk =   0.0000000
        k(   13) = (   0.3333333   0.5773503   0.0000000), wk =   0.0555556
        k(   14) = (   0.0000003   0.0000003   0.0000000), wk =   0.0000000
        k(   15) = (   0.0000000  -0.1924501   0.0000000), wk =   0.1666667
        k(   16) = (  -0.3333330  -0.7698001   0.0000000), wk =   0.0000000
        k(   17) = (   0.0000000  -0.3849002   0.0000000), wk =   0.1666667
        k(   18) = (  -0.3333330  -0.9622502   0.0000000), wk =   0.0000000
        k(   19) = (  -0.1666667   0.2886751   0.0000000), wk =   0.1666667
        k(   20) = (  -0.4999997  -0.2886749   0.0000000), wk =   0.0000000
        k(   21) = (  -0.1666667   0.4811252   0.0000000), wk =   0.1666667
        k(   22) = (  -0.4999997  -0.0962248   0.0000000), wk =   0.0000000
        k(   23) = (  -0.1666667  -0.4811252   0.0000000), wk =   0.1666667
        k(   24) = (  -0.4999997  -1.0584752   0.0000000), wk =   0.0000000
        k(   25) = (   0.1666667  -0.4811252   0.0000000), wk =   0.1666667
        k(   26) = (  -0.1666663  -1.0584752   0.0000000), wk =   0.0000000
        k(   27) = (  -0.3333333   0.5773503   0.0000000), wk =   0.0555556
        k(   28) = (  -0.6666663   0.0000003   0.0000000), wk =   0.0000000

                       cryst. coord.
        k(    1) = (   0.0000000   0.0000000   0.0000000), wk =   0.0555556
        k(    2) = (  -0.3333330  -0.3333333   0.0000000), wk =   0.0000000
        k(    3) = (   0.0000000   0.1666667   0.0000000), wk =   0.1666667
        k(    4) = (  -0.3333330  -0.1666666   0.0000000), wk =   0.0000000
        k(    5) = (   0.0000000   0.3333333   0.0000000), wk =   0.1666667
        k(    6) = (  -0.3333330   0.0000001   0.0000000), wk =   0.0000000
        k(    7) = (   0.0000000  -0.5000000   0.0000000), wk =   0.1666667
        k(    8) = (  -0.3333330  -0.8333333   0.0000000), wk =   0.0000000
        k(    9) = (   0.1666667   0.1666667   0.0000000), wk =   0.1666667
        k(   10) = (  -0.1666663  -0.1666666   0.0000000), wk =   0.0000000
        k(   11) = (   0.1666667   0.3333333   0.0000000), wk =   0.1666667
        k(   12) = (  -0.1666663   0.0000001   0.0000000), wk =   0.0000000
        k(   13) = (   0.3333333   0.3333333   0.0000000), wk =   0.0555556
        k(   14) = (   0.0000003   0.0000001   0.0000000), wk =   0.0000000
        k(   15) = (   0.0000000  -0.1666667   0.0000000), wk =   0.1666667
        k(   16) = (  -0.3333330  -0.4999999   0.0000000), wk =   0.0000000
        k(   17) = (   0.0000000  -0.3333333   0.0000000), wk =   0.1666667
        k(   18) = (  -0.3333330  -0.6666666   0.0000000), wk =   0.0000000
        k(   19) = (  -0.1666667   0.3333333   0.0000000), wk =   0.1666667
        k(   20) = (  -0.4999997   0.0000001   0.0000000), wk =   0.0000000
        k(   21) = (  -0.1666667   0.5000000   0.0000000), wk =   0.1666667
        k(   22) = (  -0.4999997   0.1666667   0.0000000), wk =   0.0000000
        k(   23) = (  -0.1666667  -0.3333333   0.0000000), wk =   0.1666667
        k(   24) = (  -0.4999997  -0.6666666   0.0000000), wk =   0.0000000
        k(   25) = (   0.1666667  -0.5000000   0.0000000), wk =   0.1666667
        k(   26) = (  -0.1666663  -0.8333333   0.0000000), wk =   0.0000000
        k(   27) = (  -0.3333333   0.6666667   0.0000000), wk =   0.0555556
        k(   28) = (  -0.6666663   0.3333334   0.0000000), wk =   0.0000000

     PseudoPot. # 1 for Mo read from file:
     ../../pseudo/Mo.pbesol.dojo.upf
     MD5 check sum: c40353276b9086539cda6b9e5a66907b
     Pseudo is Norm-conserving + core correction, Zval = 14.0
     Generated using ONCVPSP code by D. R. Hamann
     Using radial grid of 1640 points,  6 beta functions with: 
                l(1) =   0
                l(2) =   0
                l(3) =   1
                l(4) =   1
                l(5) =   2
                l(6) =   2

     PseudoPot. # 2 for S  read from file:
     ../../pseudo/S.pbesol.dojo.upf
     MD5 check sum: 501737efeeef1fb1c631cda521d4e019
     Pseudo is Norm-conserving + core correction, Zval =  6.0
     Generated using ONCVPSP code by D. R. Hamann
     Using radial grid of 1146 points,  6 beta functions with: 
                l(1) =   0
                l(2) =   0
                l(3) =   1
                l(4) =   1
                l(5) =   2
                l(6) =   2

     point group C_3h (-6)  
     there are  6 classes
     the character table:

       E     C3    C3^2  s_h   S3    S3^5 
A'     1.00  1.00  1.00  1.00  1.00  1.00
E'     1.00 -0.50 -0.50  1.00 -0.50 -0.50
E'*    1.00 -0.50 -0.50  1.00 -0.50 -0.50
A''    1.00  1.00  1.00 -1.00 -1.00 -1.00
E''    1.00 -0.50 -0.50 -1.00  0.50  0.50
E''*   1.00 -0.50 -0.50 -1.00  0.50  0.50
     imaginary part
A'     0.00  0.00  0.00  0.00  0.00  0.00
E'     0.00  0.87 -0.87  0.00  0.87 -0.87
E'*    0.00 -0.87  0.87  0.00 -0.87  0.87
A''    0.00  0.00  0.00  0.00  0.00  0.00
E''    0.00  0.87 -0.87  0.00 -0.87  0.87
E''*   0.00 -0.87  0.87  0.00  0.87 -0.87

     the symmetry operations in each class and the name of the first element:

     E        1
          identity                                               
     C3       3
          120 deg rotation - cryst. axis [0,0,1]                 
     C3^2     4
          inv.  60 deg rotation - cryst. axis [0,0,1]            
     s_h      2
          inv. 180 deg rotation - cart. axis [0,0,1]             
     S3       6
          inv. 180 deg rotation - cart. axis [1,0,0]             
     S3^5     5
          180 deg rotation - cart. axis [0,1,0]                  


     Atomic displacements:
     There are    9 irreducible representations

     Representation     1      1 modes -  To be done
     Irreps are as follows:

                     mode #   1
                     (  -0.00000   0.00000   ) 
                     (  -0.00000   0.00000   ) 
                     (  -0.00000   0.00000   ) 
                     (  -0.50000  -0.00000   ) 
                     (   0.00000   0.50000   ) 
                     (  -0.00000  -0.00000   ) 
                     (  -0.50000   0.00000   ) 
                     (  -0.00000   0.50000   ) 
                     (   0.00000  -0.00000   ) 

     Representation     2      1 modes -  To be done
     Irreps are as follows:

                     mode #   2
                     (  -0.70711  -0.00000   ) 
                     (   0.00000  -0.70711   ) 
                     (  -0.00000  -0.00000   ) 
                     (  -0.00000  -0.00000   ) 
                     (  -0.00000  -0.00000   ) 
                     (  -0.00000  -0.00000   ) 
                     (  -0.00000  -0.00000   ) 
                     (  -0.00000  -0.00000   ) 
                     (  -0.00000  -0.00000   ) 

     Representation     3      1 modes -  To be done
     Irreps are as follows:

                     mode #   3
                     (  -0.00000   0.00000   ) 
                     (  -0.00000   0.00000   ) 
                     (  -0.00000   0.00000   ) 
                     (  -0.50000  -0.00000   ) 
                     (   0.00000  -0.50000   ) 
                     (  -0.00000   0.00000   ) 
                     (  -0.50000  -0.00000   ) 
                     (  -0.00000  -0.50000   ) 
                     (   0.00000   0.00000   ) 

     Representation     4      1 modes -  To be done
     Irreps are as follows:

                     mode #   4
                     (  -0.00000  -0.00000   ) 
                     (  -0.00000  -0.00000   ) 
                     (  -0.00000  -0.00000   ) 
                     (   0.00000  -0.00000   ) 
                     (   0.00000   0.00000   ) 
                     (  -0.70711  -0.00000   ) 
                     (  -0.00000   0.00000   ) 
                     (  -0.00000  -0.00000   ) 
                     (   0.70711   0.00000   ) 

     Representation     5      1 modes -  To be done
     Irreps are as follows:

                     mode #   5
                     (  -0.70711  -0.00000   ) 
                     (  -0.00000   0.70711   ) 
                     (  -0.00000  -0.00000   ) 
                     (  -0.00000  -0.00000   ) 
                     (  -0.00000  -0.00000   ) 
                     (  -0.00000  -0.00000   ) 
                     (  -0.00000  -0.00000   ) 
                     (  -0.00000  -0.00000   ) 
                     (  -0.00000  -0.00000   ) 

     Representation     6      1 modes -  To be done
     Irreps are as follows:

                     mode #   6
                     (   0.00000  -0.00000   ) 
                     (   0.00000  -0.00000   ) 
                     (   0.00000  -0.00000   ) 
                     (  -0.50000  -0.00000   ) 
                     (  -0.00000   0.50000   ) 
                     (  -0.00000   0.00000   ) 
                     (   0.50000   0.00000   ) 
                     (  -0.00000  -0.50000   ) 
                     (  -0.00000   0.00000   ) 

     Representation     7      1 modes -  To be done
     Irreps are as follows:

                     mode #   7
                     (  -0.00000  -0.00000   ) 
                     (  -0.00000  -0.00000   ) 
                     (  -1.00000  -0.00000   ) 
                     (  -0.00000  -0.00000   ) 
                     (  -0.00000  -0.00000   ) 
                     (  -0.00000  -0.00000   ) 
                     (  -0.00000  -0.00000   ) 
                     (  -0.00000  -0.00000   ) 
                     (  -0.00000  -0.00000   ) 

     Representation     8      1 modes -  To be done
     Irreps are as follows:

                     mode #   8
                     (   0.00000  -0.00000   ) 
                     (   0.00000  -0.00000   ) 
                     (   0.00000  -0.00000   ) 
                     (  -0.50000   0.00000   ) 
                     (  -0.00000  -0.50000   ) 
                     (  -0.00000  -0.00000   ) 
                     (   0.50000  -0.00000   ) 
                     (   0.00000   0.50000   ) 
                     (   0.00000  -0.00000   ) 

     Representation     9      1 modes -  To be done
     Irreps are as follows:

                     mode #   9
                     (  -0.00000  -0.00000   ) 
                     (  -0.00000  -0.00000   ) 
                     (  -0.00000  -0.00000   ) 
                     (   0.00000  -0.00000   ) 
                     (   0.00000   0.00000   ) 
                     (  -0.70711   0.00000   ) 
                     (  -0.00000   0.00000   ) 
                     (  -0.00000  -0.00000   ) 
                     (  -0.70711  -0.00000   ) 


     PHONON       :  56m44.89s CPU  57m27.83s WALL

     Reading dVscf from file MoS2-dvscf7_

     Diagonalizing the dynamical matrix

     q = (   -0.333333000  -0.577350000   0.000000000 ) 

 **************************************************************************
     freq (    1) =       5.333671 [THz] =     177.912104 [cm-1]
     freq (    2) =       5.514021 [THz] =     183.927927 [cm-1]
     freq (    3) =       6.993683 [THz] =     233.284162 [cm-1]
     freq (    4) =       9.677083 [THz] =     322.792734 [cm-1]
     freq (    5) =      10.054756 [THz] =     335.390575 [cm-1]
     freq (    6) =      10.060002 [THz] =     335.565545 [cm-1]
     freq (    7) =      11.250564 [THz] =     375.278431 [cm-1]
     freq (    8) =      11.451890 [THz] =     381.993949 [cm-1]
     freq (    9) =      11.837925 [THz] =     394.870690 [cm-1]
 **************************************************************************
     electron-phonon interaction (to be used in YAMBO)  ...


     PHONON       :  57m14.74s CPU  58m 0.77s WALL

     INITIALIZATION: 
     phq_setup    :      0.15s CPU      0.24s WALL (       7 calls)
     phq_init     :      0.59s CPU      0.68s WALL (       7 calls)

     phq_init     :      0.59s CPU      0.68s WALL (       7 calls)
     set_drhoc    :      0.00s CPU      0.00s WALL (       7 calls)
     init_vloc    :      0.07s CPU      0.07s WALL (       8 calls)
     init_us_1    :      0.00s CPU      0.00s WALL (       8 calls)
     init_us_2    :      0.15s CPU      0.16s WALL (    1748 calls)

     dvqpsi_us    :     73.83s CPU     76.98s WALL (    1332 calls)
                                        0.00s GPU  (    1332 calls)
     dvqpsi_us_on :     14.31s CPU     14.42s WALL (    1332 calls)

     add_vuspsi   :      1.82s CPU      1.89s WALL (    6379 calls)


      Electron-phonon coupling
     elphon       :    302.25s CPU    331.79s WALL (       7 calls)
     elphel       :    298.18s CPU    327.46s WALL (      60 calls)

      General routines
     calbec       :      4.17s CPU      4.44s WALL (    6971 calls)
     fft          :      2.49s CPU      2.55s WALL (     186 calls)
     ffts         :      1.33s CPU      1.40s WALL (    1409 calls)
     fftw         :    288.41s CPU    301.71s WALL ( 2633984 calls)
     davcio       :      0.73s CPU      1.08s WALL (    3228 calls)

      Additional routines
     h_psi_bgrp   :    188.58s CPU    196.22s WALL (    6379 calls)
     h_psi        :    188.56s CPU    196.20s WALL (    6379 calls)
     h_psi:pot    :    188.31s CPU    195.94s WALL (    6379 calls)
     h_psi:calbec :      3.74s CPU      3.93s WALL (    6379 calls)


     PHONON       :  57m14.74s CPU  58m 0.77s WALL


   This run was terminated on:  12:22: 6  25Feb2026            

=------------------------------------------------------------------------------=
   JOB DONE.
=------------------------------------------------------------------------------=
