
     Program PWSCF v.7.5 starts on  5Mar2026 at 11:40:39 
        Git branch: HEAD
        Last git commit: 770a0b2d12928a67048e2f3da8d10d057e52179e
        Last git commit date: Tue Aug 19 09:57:12 2025 +0000
        Last git commit subject: Merge branch 'QE-7.5-RC' into 'master'

     This program is part of the open-source Quantum ESPRESSO suite
     for quantum simulation of materials; please cite
         "P. Giannozzi et al., J. Phys.:Condens. Matter 21 395502 (2009);
         "P. Giannozzi et al., J. Phys.:Condens. Matter 29 465901 (2017);
         "P. Giannozzi et al., J. Chem. Phys. 152 154105 (2020);
          URL http://www.quantum-espresso.org", 
     in publications or presentations arising from this work. More details at
     http://www.quantum-espresso.org/quote

     Parallel version (MPI), running on   256 processors

     MPI processes distributed on     8 nodes
     240016 MiB available memory on the printing compute node when the environment starts

     Waiting for input...
     Reading input from standard input

     Current dimensions of program PWSCF are:
     Max number of different atomic species (ntypx) = 10
     Max number of k-points (npk) =  40000
     Max angular momentum in pseudopotentials (lmaxx) =  4

     Atomic positions and unit cell read from directory:
     ./tmp/NiI2.save/


     K-points division:     npool     =       8
     R & G space division:  proc/nbgrp/npool/nimage =      32
     Subspace diagonalization in iterative solution of the eigenvalue problem:
     one sub-group per band group will be used
     custom distributed-memory algorithm (size of sub-group:  2*  2 procs)


     Parallelization info
     --------------------
     sticks:   dense  smooth     PW     G-vecs:    dense   smooth      PW
     Min          96      96     30                 1853     1853     331
     Max          97      97     31                 1855     1855     333
     Sum        3099    3099    987                59333    59333   10621

     Using Slab Decomposition



     bravais-lattice index     =            5
     lattice parameter (alat)  =      26.8360  a.u.
     unit-cell volume          =    1281.9023 (a.u.)^3
     number of atoms/cell      =            6
     number of atomic types    =            3
     number of electrons       =        64.00
     number of Kohn-Sham states=          200
     kinetic-energy cutoff     =      49.0000  Ry
     charge density cutoff     =     196.0000  Ry
     Exchange-correlation= PBESOL
                           (   1   4  10   8   0   0   0)

     celldm(1)=  26.836001  celldm(2)=   0.000000  celldm(3)=   0.000000
     celldm(4)=   0.961200  celldm(5)=   0.000000  celldm(6)=   0.000000

     crystal axes: (cart. coord. in units of alat)
               a(1) = (   0.139284  -0.080416   0.986982 )  
               a(2) = (   0.000000   0.160831   0.986982 )  
               a(3) = (  -0.139284  -0.080416   0.986982 )  

     reciprocal axes: (cart. coord. in units 2 pi/alat)
               b(1) = (  3.589791 -2.072567  0.337730 )  
               b(2) = (  0.000000  4.145133  0.337730 )  
               b(3) = ( -3.589791 -2.072567  0.337730 )  


     PseudoPot. # 1 for Ni read from file:
     Pseudos/Ni_pbesol.upf
     MD5 check sum: 3ec56ad6bf78c9cc1bbec815420e1c7d
     Pseudo is Norm-conserving + core correction, Zval = 18.0
     Generated using ONCVPSP code by D. R. Hamann
     Using radial grid of 1356 points,  6 beta functions with: 
                l(1) =   0
                l(2) =   0
                l(3) =   1
                l(4) =   1
                l(5) =   2
                l(6) =   2

     PseudoPot. # 2 for Ni read from file:
     Pseudos/Ni_pbesol.upf
     MD5 check sum: 3ec56ad6bf78c9cc1bbec815420e1c7d
     Pseudo is Norm-conserving + core correction, Zval = 18.0
     Generated using ONCVPSP code by D. R. Hamann
     Using radial grid of 1356 points,  6 beta functions with: 
                l(1) =   0
                l(2) =   0
                l(3) =   1
                l(4) =   1
                l(5) =   2
                l(6) =   2

     PseudoPot. # 3 for I  read from file:
     Pseudos/I_pbesol.upf
     MD5 check sum: 80ed5ceb2eb9c553cfb6760a299d9c5b
     Pseudo is Norm-conserving + core correction, Zval =  7.0
     Generated using ONCVPSP code by D. R. Hamann
     Using radial grid of 1182 points,  6 beta functions with: 
                l(1) =   0
                l(2) =   0
                l(3) =   1
                l(4) =   1
                l(5) =   2
                l(6) =   2

     atomic species   valence    mass     pseudopotential
     Ni1              18.00    58.69340     Ni( 1.00)
     Ni2              18.00    58.69340     Ni( 1.00)
     I                 7.00   126.90447     I ( 1.00)

     Starting magnetic structure 
     atomic species   magnetization
     Ni1             0.000
     Ni2             0.000
     I               0.000

     12 Sym. Ops., with inversion, found


                                    s                        frac. trans.

      isym =  1     identity                                     

 cryst.   s( 1) = (     1          0          0      )
                  (     0          1          0      )
                  (     0          0          1      )

 cart.    s( 1) = (  1.0000000  0.0000000  0.0000000 )
                  (  0.0000000  1.0000000  0.0000000 )
                  ( -0.0000000 -0.0000000  1.0000000 )


      isym =  2     180 deg rotation - cart. axis [1,0,0]        

 cryst.   s( 2) = (     0          0         -1      )
                  (     0         -1          0      )
                  (    -1          0          0      )

 cart.    s( 2) = (  1.0000000 -0.0000000 -0.0000000 )
                  (  0.0000000 -1.0000000 -0.0000000 )
                  ( -0.0000000  0.0000000 -1.0000000 )


      isym =  3     120 deg rotation - cryst. axis [0,0,1]       

 cryst.   s( 3) = (     0          1          0      )
                  (     0          0          1      )
                  (     1          0          0      )

 cart.    s( 3) = ( -0.5000000 -0.8660254 -0.0000000 )
                  (  0.8660254 -0.5000000 -0.0000000 )
                  (  0.0000000  0.0000000  1.0000000 )


      isym =  4     120 deg rotation - cryst. axis [0,0,-1]      

 cryst.   s( 4) = (     0          0          1      )
                  (     1          0          0      )
                  (     0          1          0      )

 cart.    s( 4) = ( -0.5000000  0.8660254  0.0000000 )
                  ( -0.8660254 -0.5000000 -0.0000000 )
                  (  0.0000000 -0.0000000  1.0000000 )


      isym =  5     180 deg rotation - cryst. axis [0,1,0]       

 cryst.   s( 5) = (     0         -1          0      )
                  (    -1          0          0      )
                  (     0          0         -1      )

 cart.    s( 5) = ( -0.5000000 -0.8660254 -0.0000000 )
                  ( -0.8660254  0.5000000  0.0000000 )
                  (  0.0000000  0.0000000 -1.0000000 )


      isym =  6     180 deg rotation - cryst. axis [1,1,0]       

 cryst.   s( 6) = (    -1          0          0      )
                  (     0          0         -1      )
                  (     0         -1          0      )

 cart.    s( 6) = ( -0.5000000  0.8660254  0.0000000 )
                  (  0.8660254  0.5000000  0.0000000 )
                  ( -0.0000000 -0.0000000 -1.0000000 )


      isym =  7     inversion                                    

 cryst.   s( 7) = (    -1          0          0      )
                  (     0         -1          0      )
                  (     0          0         -1      )

 cart.    s( 7) = ( -1.0000000 -0.0000000 -0.0000000 )
                  ( -0.0000000 -1.0000000 -0.0000000 )
                  (  0.0000000  0.0000000 -1.0000000 )


      isym =  8     inv. 180 deg rotation - cart. axis [1,0,0]   

 cryst.   s( 8) = (     0          0          1      )
                  (     0          1          0      )
                  (     1          0          0      )

 cart.    s( 8) = ( -1.0000000  0.0000000  0.0000000 )
                  ( -0.0000000  1.0000000  0.0000000 )
                  (  0.0000000 -0.0000000  1.0000000 )


      isym =  9     inv. 120 deg rotation - cryst. axis [0,0,1]  

 cryst.   s( 9) = (     0         -1          0      )
                  (     0          0         -1      )
                  (    -1          0          0      )

 cart.    s( 9) = (  0.5000000  0.8660254  0.0000000 )
                  ( -0.8660254  0.5000000  0.0000000 )
                  ( -0.0000000 -0.0000000 -1.0000000 )


      isym = 10     inv. 120 deg rotation - cryst. axis [0,0,-1] 

 cryst.   s(10) = (     0          0         -1      )
                  (    -1          0          0      )
                  (     0         -1          0      )

 cart.    s(10) = (  0.5000000 -0.8660254 -0.0000000 )
                  (  0.8660254  0.5000000  0.0000000 )
                  ( -0.0000000  0.0000000 -1.0000000 )


      isym = 11     inv. 180 deg rotation - cryst. axis [0,1,0]  

 cryst.   s(11) = (     0          1          0      )
                  (     1          0          0      )
                  (     0          0          1      )

 cart.    s(11) = (  0.5000000  0.8660254  0.0000000 )
                  (  0.8660254 -0.5000000 -0.0000000 )
                  ( -0.0000000 -0.0000000  1.0000000 )


      isym = 12     inv. 180 deg rotation - cryst. axis [1,1,0]  

 cryst.   s(12) = (     1          0          0      )
                  (     0          0          1      )
                  (     0          1          0      )

 cart.    s(12) = (  0.5000000 -0.8660254 -0.0000000 )
                  ( -0.8660254 -0.5000000 -0.0000000 )
                  (  0.0000000  0.0000000  1.0000000 )


     point group D_3d (-3m) 
     there are  6 classes
     the character table:

       E     2C3   3C2'  i     2S6   3s_d 
A_1g   1.00  1.00  1.00  1.00  1.00  1.00
A_2g   1.00  1.00 -1.00  1.00  1.00 -1.00
E_g    2.00 -1.00  0.00  2.00 -1.00  0.00
A_1u   1.00  1.00  1.00 -1.00 -1.00 -1.00
A_2u   1.00  1.00 -1.00 -1.00 -1.00  1.00
E_u    2.00 -1.00  0.00 -2.00  1.00  0.00

     the symmetry operations in each class and the name of the first element:

     E        1
          identity                                               
     2C3      3    4
          120 deg rotation - cryst. axis [0,0,1]                 
     3C2'     2    5    6
          180 deg rotation - cart. axis [1,0,0]                  
     i        7
          inversion                                              
     2S6      9   10
          inv. 120 deg rotation - cryst. axis [0,0,1]            
     3s_d     8   11   12
          inv. 180 deg rotation - cart. axis [1,0,0]             

   Cartesian axes

     site n.     atom                  positions (alat units)
         1        Ni1    tau(   1) = (   0.0000000   0.0000000   0.0000000  )
         2        Ni2    tau(   2) = (   0.1392839   0.0804156   0.4934910  )
         3        I      tau(   3) = (  -0.0000000  -0.0000000   0.3856062  )
         4        I      tau(   4) = (   0.1392839   0.0804156   0.8790972  )
         5        I      tau(   5) = (   0.1392839   0.0804156   0.1078847  )
         6        I      tau(   6) = (   0.1392839  -0.0804156   0.6013757  )

   Crystallographic axes

     site n.     atom                  positions (cryst. coord.)
         1        Ni1    tau(   1) = (  0.0000000  0.0000000  0.0000000  )
         2        Ni2    tau(   2) = (  0.5000000  0.5000000 -0.5000000  )
         3        I      tau(   3) = (  0.1302308  0.1302308  0.1302308  )
         4        I      tau(   4) = (  0.6302308  0.6302308 -0.3697692  )
         5        I      tau(   5) = (  0.3697692  0.3697692 -0.6302308  )
         6        I      tau(   6) = (  0.8697692 -0.1302308 -0.1302308  )

     number of k points=   116
                       cart. coord. in units 2pi/alat
        k(    1) = (   0.0000000   0.0000000   0.0000000), wk =   0.0010000
        k(    2) = (  -0.3589791  -0.2072567   0.0337730), wk =   0.0060000
        k(    3) = (  -0.7179582  -0.4145133   0.0675460), wk =   0.0060000
        k(    4) = (  -1.0769372  -0.6217700   0.1013190), wk =   0.0060000
        k(    5) = (  -1.4359163  -0.8290267   0.1350920), wk =   0.0060000
        k(    6) = (   1.7948954   1.0362833  -0.1688650), wk =   0.0030000
        k(    7) = (  -0.3589791   0.2072567   0.0675460), wk =   0.0060000
        k(    8) = (  -0.7179582  -0.0000000   0.1013190), wk =   0.0120000
        k(    9) = (  -1.0769372  -0.2072567   0.1350920), wk =   0.0120000
        k(   10) = (  -1.4359163  -0.4145133   0.1688650), wk =   0.0120000
        k(   11) = (   1.7948954   1.4507967  -0.1350920), wk =   0.0120000
        k(   12) = (   1.4359163   1.2435400  -0.1013190), wk =   0.0120000
        k(   13) = (   1.0769372   1.0362833  -0.0675460), wk =   0.0120000
        k(   14) = (   0.7179582   0.8290267  -0.0337730), wk =   0.0120000
        k(   15) = (   0.3589791   0.6217700   0.0000000), wk =   0.0060000
        k(   16) = (  -0.7179582   0.4145133   0.1350920), wk =   0.0060000
        k(   17) = (  -1.0769372   0.2072567   0.1688650), wk =   0.0120000
        k(   18) = (  -1.4359163  -0.0000000   0.2026380), wk =   0.0120000
        k(   19) = (   1.7948954   1.8653100  -0.1013190), wk =   0.0120000
        k(   20) = (   1.4359163   1.6580533  -0.0675460), wk =   0.0120000
        k(   21) = (   1.0769372   1.4507967  -0.0337730), wk =   0.0120000
        k(   22) = (   0.7179582   1.2435400   0.0000000), wk =   0.0060000
        k(   23) = (  -1.0769372   0.6217700   0.2026380), wk =   0.0060000
        k(   24) = (  -1.4359163   0.4145133   0.2364109), wk =   0.0120000
        k(   25) = (   1.7948954   2.2798233  -0.0675460), wk =   0.0120000
        k(   26) = (   1.4359163   2.0725667  -0.0337730), wk =   0.0120000
        k(   27) = (   1.0769372   1.8653100   0.0000000), wk =   0.0060000
        k(   28) = (  -1.4359163   0.8290267   0.2701839), wk =   0.0060000
        k(   29) = (   1.7948954   2.6943367  -0.0337730), wk =   0.0120000
        k(   30) = (   1.4359163   2.4870800   0.0000000), wk =   0.0060000
        k(   31) = (   1.7948954  -1.0362833  -0.3377299), wk =   0.0030000
        k(   32) = (  -0.0000000   0.0000000   0.1013190), wk =   0.0020000
        k(   33) = (  -0.3589791  -0.2072567   0.1350920), wk =   0.0060000
        k(   34) = (  -0.7179582  -0.4145133   0.1688650), wk =   0.0060000
        k(   35) = (  -1.0769372  -0.6217700   0.2026380), wk =   0.0060000
        k(   36) = (   2.1538745   1.2435400  -0.1013190), wk =   0.0060000
        k(   37) = (   1.7948954   1.0362833  -0.0675460), wk =   0.0060000
        k(   38) = (   1.4359163   0.8290267  -0.0337730), wk =   0.0060000
        k(   39) = (   1.0769372   0.6217700   0.0000000), wk =   0.0060000
        k(   40) = (   0.7179582   0.4145133   0.0337730), wk =   0.0060000
        k(   41) = (  -0.3589791   0.2072567   0.1688650), wk =   0.0060000
        k(   42) = (  -0.7179582   0.0000000   0.2026380), wk =   0.0120000
        k(   43) = (  -1.0769372  -0.2072567   0.2364109), wk =   0.0120000
        k(   44) = (   2.1538745   1.6580533  -0.0675460), wk =   0.0120000
        k(   45) = (   1.7948954   1.4507967  -0.0337730), wk =   0.0120000
        k(   46) = (   1.4359163   1.2435400   0.0000000), wk =   0.0120000
        k(   47) = (   1.0769372   1.0362833   0.0337730), wk =   0.0120000
        k(   48) = (   0.7179582   0.8290267   0.0675460), wk =   0.0120000
        k(   49) = (  -0.7179582   0.4145133   0.2364109), wk =   0.0060000
        k(   50) = (  -1.0769372   0.2072567   0.2701839), wk =   0.0120000
        k(   51) = (   2.1538745   2.0725667  -0.0337730), wk =   0.0120000
        k(   52) = (   1.7948954   1.8653100   0.0000000), wk =   0.0120000
        k(   53) = (   1.4359163   1.6580533   0.0337730), wk =   0.0120000
        k(   54) = (   1.0769372   1.4507967   0.0675460), wk =   0.0120000
        k(   55) = (   0.7179582   1.2435400   0.1013190), wk =   0.0120000
        k(   56) = (  -1.0769372   0.6217700   0.3039569), wk =   0.0060000
        k(   57) = (   2.1538745   2.4870800   0.0000000), wk =   0.0120000
        k(   58) = (   1.7948954   2.2798233   0.0337730), wk =   0.0120000
        k(   59) = (   1.4359163   2.0725667   0.0675460), wk =   0.0120000
        k(   60) = (   1.0769372   1.8653100   0.1013190), wk =   0.0120000
        k(   61) = (   0.7179582   1.6580533   0.1350920), wk =   0.0120000
        k(   62) = (   2.1538745  -1.2435400  -0.3039569), wk =   0.0060000
        k(   63) = (   1.7948954  -1.4507967  -0.2701839), wk =   0.0120000
        k(   64) = (   1.4359163  -1.6580533  -0.2364109), wk =   0.0120000
        k(   65) = (   1.0769372  -1.8653100  -0.2026380), wk =   0.0120000
        k(   66) = (   0.7179582  -2.0725667  -0.1688650), wk =   0.0060000
        k(   67) = (   1.7948954  -1.0362833  -0.2364109), wk =   0.0060000
        k(   68) = (   1.4359163  -1.2435400  -0.2026380), wk =   0.0120000
        k(   69) = (   1.0769372  -1.4507967  -0.1688650), wk =   0.0120000
        k(   70) = (   1.4359163  -0.8290267  -0.1688650), wk =   0.0060000
        k(   71) = (   1.0769372  -1.0362833  -0.1350920), wk =   0.0120000
        k(   72) = (   1.0769372  -0.6217700  -0.1013190), wk =   0.0060000
        k(   73) = (  -0.0000000   0.0000000   0.2026380), wk =   0.0020000
        k(   74) = (  -0.3589791  -0.2072567   0.2364109), wk =   0.0060000
        k(   75) = (  -0.7179582  -0.4145133   0.2701839), wk =   0.0060000
        k(   76) = (   2.5128536   1.4507967  -0.0337730), wk =   0.0060000
        k(   77) = (   2.1538745   1.2435400   0.0000000), wk =   0.0060000
        k(   78) = (   1.7948954   1.0362833   0.0337730), wk =   0.0060000
        k(   79) = (   1.4359163   0.8290267   0.0675460), wk =   0.0060000
        k(   80) = (  -0.3589791   0.2072567   0.2701839), wk =   0.0060000
        k(   81) = (  -0.7179582  -0.0000000   0.3039569), wk =   0.0120000
        k(   82) = (   2.5128536   1.8653100   0.0000000), wk =   0.0120000
        k(   83) = (   2.1538745   1.6580533   0.0337730), wk =   0.0120000
        k(   84) = (   1.7948954   1.4507967   0.0675460), wk =   0.0120000
        k(   85) = (   1.4359163   1.2435400   0.1013190), wk =   0.0120000
        k(   86) = (  -0.7179582   0.4145133   0.3377299), wk =   0.0060000
        k(   87) = (   2.5128536   2.2798233   0.0337730), wk =   0.0120000
        k(   88) = (   2.1538745   2.0725667   0.0675460), wk =   0.0120000
        k(   89) = (   1.7948954   1.8653100   0.1013190), wk =   0.0120000
        k(   90) = (   1.4359163   1.6580533   0.1350920), wk =   0.0120000
        k(   91) = (   2.5128536  -1.4507967  -0.2701839), wk =   0.0060000
        k(   92) = (   2.1538745  -1.6580533  -0.2364109), wk =   0.0120000
        k(   93) = (   1.7948954  -1.8653100  -0.2026380), wk =   0.0120000
        k(   94) = (   1.4359163  -2.0725667  -0.1688650), wk =   0.0060000
        k(   95) = (   2.1538745  -1.2435400  -0.2026380), wk =   0.0060000
        k(   96) = (   1.7948954  -1.4507967  -0.1688650), wk =   0.0120000
        k(   97) = (   1.7948954  -1.0362833  -0.1350920), wk =   0.0060000
        k(   98) = (   0.0000000   0.0000000   0.3039569), wk =   0.0020000
        k(   99) = (  -0.3589791  -0.2072567   0.3377299), wk =   0.0060000
        k(  100) = (   2.8718326   1.6580533   0.0337730), wk =   0.0060000
        k(  101) = (   2.5128536   1.4507967   0.0675460), wk =   0.0060000
        k(  102) = (   2.1538745   1.2435400   0.1013190), wk =   0.0060000
        k(  103) = (  -0.3589791   0.2072567   0.3715029), wk =   0.0060000
        k(  104) = (   2.8718326   2.0725667   0.0675460), wk =   0.0120000
        k(  105) = (   2.5128536   1.8653100   0.1013190), wk =   0.0120000
        k(  106) = (   2.1538745   1.6580533   0.1350920), wk =   0.0120000
        k(  107) = (   2.8718326  -1.6580533  -0.2364109), wk =   0.0060000
        k(  108) = (   2.5128536  -1.8653100  -0.2026380), wk =   0.0120000
        k(  109) = (   2.1538745  -2.0725667  -0.1688650), wk =   0.0060000
        k(  110) = (   2.5128536  -1.4507967  -0.1688650), wk =   0.0060000
        k(  111) = (  -0.0000000   0.0000000   0.4052759), wk =   0.0020000
        k(  112) = (   3.2308117   1.8653100   0.1013190), wk =   0.0060000
        k(  113) = (   2.8718326   1.6580533   0.1350920), wk =   0.0060000
        k(  114) = (   3.2308117  -1.8653100  -0.2026380), wk =   0.0060000
        k(  115) = (   2.8718326  -2.0725667  -0.1688650), wk =   0.0060000
        k(  116) = (   0.0000000   0.0000000  -0.5065949), wk =   0.0010000

                       cryst. coord.
        k(    1) = (   0.0000000   0.0000000   0.0000000), wk =   0.0010000
        k(    2) = (   0.0000000  -0.0000000   0.1000000), wk =   0.0060000
        k(    3) = (   0.0000000  -0.0000000   0.2000000), wk =   0.0060000
        k(    4) = (   0.0000000  -0.0000000   0.3000000), wk =   0.0060000
        k(    5) = (   0.0000000  -0.0000000   0.4000000), wk =   0.0060000
        k(    6) = (  -0.0000000   0.0000000  -0.5000000), wk =   0.0030000
        k(    7) = (  -0.0000000   0.1000000   0.1000000), wk =   0.0060000
        k(    8) = (   0.0000000   0.1000000   0.2000000), wk =   0.0120000
        k(    9) = (   0.0000000   0.1000000   0.3000000), wk =   0.0120000
        k(   10) = (   0.0000000   0.1000000   0.4000000), wk =   0.0120000
        k(   11) = (   0.0000000   0.1000000  -0.5000000), wk =   0.0120000
        k(   12) = (  -0.0000000   0.1000000  -0.4000000), wk =   0.0120000
        k(   13) = (  -0.0000000   0.1000000  -0.3000000), wk =   0.0120000
        k(   14) = (  -0.0000000   0.1000000  -0.2000000), wk =   0.0120000
        k(   15) = (  -0.0000000   0.1000000  -0.1000000), wk =   0.0060000
        k(   16) = (  -0.0000000   0.2000000   0.2000000), wk =   0.0060000
        k(   17) = (   0.0000000   0.2000000   0.3000000), wk =   0.0120000
        k(   18) = (   0.0000000   0.2000000   0.4000000), wk =   0.0120000
        k(   19) = (  -0.0000000   0.2000000  -0.5000000), wk =   0.0120000
        k(   20) = (  -0.0000000   0.2000000  -0.4000000), wk =   0.0120000
        k(   21) = (  -0.0000000   0.2000000  -0.3000000), wk =   0.0120000
        k(   22) = (  -0.0000000   0.2000000  -0.2000000), wk =   0.0060000
        k(   23) = (   0.0000000   0.3000000   0.3000000), wk =   0.0060000
        k(   24) = (   0.0000000   0.3000000   0.4000000), wk =   0.0120000
        k(   25) = (  -0.0000000   0.3000000  -0.5000000), wk =   0.0120000
        k(   26) = (  -0.0000000   0.3000000  -0.4000000), wk =   0.0120000
        k(   27) = (  -0.0000000   0.3000000  -0.3000000), wk =   0.0060000
        k(   28) = (  -0.0000000   0.4000000   0.4000000), wk =   0.0060000
        k(   29) = (  -0.0000000   0.4000000  -0.5000000), wk =   0.0120000
        k(   30) = (  -0.0000000   0.4000000  -0.4000000), wk =   0.0060000
        k(   31) = (   0.0000000  -0.5000000  -0.5000000), wk =   0.0030000
        k(   32) = (   0.1000000   0.1000000   0.1000000), wk =   0.0020000
        k(   33) = (   0.1000000   0.1000000   0.2000000), wk =   0.0060000
        k(   34) = (   0.1000000   0.1000000   0.3000000), wk =   0.0060000
        k(   35) = (   0.1000000   0.1000000   0.4000000), wk =   0.0060000
        k(   36) = (   0.1000000   0.1000000  -0.5000000), wk =   0.0060000
        k(   37) = (   0.1000000   0.1000000  -0.4000000), wk =   0.0060000
        k(   38) = (   0.1000000   0.1000000  -0.3000000), wk =   0.0060000
        k(   39) = (   0.1000000   0.1000000  -0.2000000), wk =   0.0060000
        k(   40) = (   0.1000000   0.1000000  -0.1000000), wk =   0.0060000
        k(   41) = (   0.1000000   0.2000000   0.2000000), wk =   0.0060000
        k(   42) = (   0.1000000   0.2000000   0.3000000), wk =   0.0120000
        k(   43) = (   0.1000000   0.2000000   0.4000000), wk =   0.0120000
        k(   44) = (   0.1000000   0.2000000  -0.5000000), wk =   0.0120000
        k(   45) = (   0.1000000   0.2000000  -0.4000000), wk =   0.0120000
        k(   46) = (   0.1000000   0.2000000  -0.3000000), wk =   0.0120000
        k(   47) = (   0.1000000   0.2000000  -0.2000000), wk =   0.0120000
        k(   48) = (   0.1000000   0.2000000  -0.1000000), wk =   0.0120000
        k(   49) = (   0.1000000   0.3000000   0.3000000), wk =   0.0060000
        k(   50) = (   0.1000000   0.3000000   0.4000000), wk =   0.0120000
        k(   51) = (   0.1000000   0.3000000  -0.5000000), wk =   0.0120000
        k(   52) = (   0.1000000   0.3000000  -0.4000000), wk =   0.0120000
        k(   53) = (   0.1000000   0.3000000  -0.3000000), wk =   0.0120000
        k(   54) = (   0.1000000   0.3000000  -0.2000000), wk =   0.0120000
        k(   55) = (   0.1000000   0.3000000  -0.1000000), wk =   0.0120000
        k(   56) = (   0.1000000   0.4000000   0.4000000), wk =   0.0060000
        k(   57) = (   0.1000000   0.4000000  -0.5000000), wk =   0.0120000
        k(   58) = (   0.1000000   0.4000000  -0.4000000), wk =   0.0120000
        k(   59) = (   0.1000000   0.4000000  -0.3000000), wk =   0.0120000
        k(   60) = (   0.1000000   0.4000000  -0.2000000), wk =   0.0120000
        k(   61) = (   0.1000000   0.4000000  -0.1000000), wk =   0.0120000
        k(   62) = (   0.1000000  -0.5000000  -0.5000000), wk =   0.0060000
        k(   63) = (   0.1000000  -0.5000000  -0.4000000), wk =   0.0120000
        k(   64) = (   0.1000000  -0.5000000  -0.3000000), wk =   0.0120000
        k(   65) = (   0.1000000  -0.5000000  -0.2000000), wk =   0.0120000
        k(   66) = (   0.1000000  -0.5000000  -0.1000000), wk =   0.0060000
        k(   67) = (   0.1000000  -0.4000000  -0.4000000), wk =   0.0060000
        k(   68) = (   0.1000000  -0.4000000  -0.3000000), wk =   0.0120000
        k(   69) = (   0.1000000  -0.4000000  -0.2000000), wk =   0.0120000
        k(   70) = (   0.1000000  -0.3000000  -0.3000000), wk =   0.0060000
        k(   71) = (   0.1000000  -0.3000000  -0.2000000), wk =   0.0120000
        k(   72) = (   0.1000000  -0.2000000  -0.2000000), wk =   0.0060000
        k(   73) = (   0.2000000   0.2000000   0.2000000), wk =   0.0020000
        k(   74) = (   0.2000000   0.2000000   0.3000000), wk =   0.0060000
        k(   75) = (   0.2000000   0.2000000   0.4000000), wk =   0.0060000
        k(   76) = (   0.2000000   0.2000000  -0.5000000), wk =   0.0060000
        k(   77) = (   0.2000000   0.2000000  -0.4000000), wk =   0.0060000
        k(   78) = (   0.2000000   0.2000000  -0.3000000), wk =   0.0060000
        k(   79) = (   0.2000000   0.2000000  -0.2000000), wk =   0.0060000
        k(   80) = (   0.2000000   0.3000000   0.3000000), wk =   0.0060000
        k(   81) = (   0.2000000   0.3000000   0.4000000), wk =   0.0120000
        k(   82) = (   0.2000000   0.3000000  -0.5000000), wk =   0.0120000
        k(   83) = (   0.2000000   0.3000000  -0.4000000), wk =   0.0120000
        k(   84) = (   0.2000000   0.3000000  -0.3000000), wk =   0.0120000
        k(   85) = (   0.2000000   0.3000000  -0.2000000), wk =   0.0120000
        k(   86) = (   0.2000000   0.4000000   0.4000000), wk =   0.0060000
        k(   87) = (   0.2000000   0.4000000  -0.5000000), wk =   0.0120000
        k(   88) = (   0.2000000   0.4000000  -0.4000000), wk =   0.0120000
        k(   89) = (   0.2000000   0.4000000  -0.3000000), wk =   0.0120000
        k(   90) = (   0.2000000   0.4000000  -0.2000000), wk =   0.0120000
        k(   91) = (   0.2000000  -0.5000000  -0.5000000), wk =   0.0060000
        k(   92) = (   0.2000000  -0.5000000  -0.4000000), wk =   0.0120000
        k(   93) = (   0.2000000  -0.5000000  -0.3000000), wk =   0.0120000
        k(   94) = (   0.2000000  -0.5000000  -0.2000000), wk =   0.0060000
        k(   95) = (   0.2000000  -0.4000000  -0.4000000), wk =   0.0060000
        k(   96) = (   0.2000000  -0.4000000  -0.3000000), wk =   0.0120000
        k(   97) = (   0.2000000  -0.3000000  -0.3000000), wk =   0.0060000
        k(   98) = (   0.3000000   0.3000000   0.3000000), wk =   0.0020000
        k(   99) = (   0.3000000   0.3000000   0.4000000), wk =   0.0060000
        k(  100) = (   0.3000000   0.3000000  -0.5000000), wk =   0.0060000
        k(  101) = (   0.3000000   0.3000000  -0.4000000), wk =   0.0060000
        k(  102) = (   0.3000000   0.3000000  -0.3000000), wk =   0.0060000
        k(  103) = (   0.3000000   0.4000000   0.4000000), wk =   0.0060000
        k(  104) = (   0.3000000   0.4000000  -0.5000000), wk =   0.0120000
        k(  105) = (   0.3000000   0.4000000  -0.4000000), wk =   0.0120000
        k(  106) = (   0.3000000   0.4000000  -0.3000000), wk =   0.0120000
        k(  107) = (   0.3000000  -0.5000000  -0.5000000), wk =   0.0060000
        k(  108) = (   0.3000000  -0.5000000  -0.4000000), wk =   0.0120000
        k(  109) = (   0.3000000  -0.5000000  -0.3000000), wk =   0.0060000
        k(  110) = (   0.3000000  -0.4000000  -0.4000000), wk =   0.0060000
        k(  111) = (   0.4000000   0.4000000   0.4000000), wk =   0.0020000
        k(  112) = (   0.4000000   0.4000000  -0.5000000), wk =   0.0060000
        k(  113) = (   0.4000000   0.4000000  -0.4000000), wk =   0.0060000
        k(  114) = (   0.4000000  -0.5000000  -0.5000000), wk =   0.0060000
        k(  115) = (   0.4000000  -0.5000000  -0.4000000), wk =   0.0060000
        k(  116) = (  -0.5000000  -0.5000000  -0.5000000), wk =   0.0010000

     Dense  grid:    59333 G-vectors     FFT dimensions: ( 120, 120, 120)

     Dynamical RAM for                 wfc:       0.71 MB

     Dynamical RAM for     wfc (w. buffer):       0.71 MB

     Dynamical RAM for           str. fact:       0.08 MB

     Dynamical RAM for           local pot:       0.00 MB

     Dynamical RAM for          nlocal pot:       0.38 MB

     Dynamical RAM for                qrad:       3.37 MB

     Dynamical RAM for          rho,v,vnew:       2.81 MB

     Dynamical RAM for           G-vectors:       0.12 MB

     Dynamical RAM for          h,s,v(r/c):       1.83 MB

     Dynamical RAM for          <psi|beta>:       0.33 MB

     Dynamical RAM for                 psi:       1.42 MB

     Dynamical RAM for                hpsi:       1.42 MB

     Dynamical RAM for      wfcinit/wfcrot:       2.33 MB

     Estimated static dynamical RAM per process >      10.23 MB

     Estimated max dynamical RAM per process >      15.22 MB

     Estimated total dynamical RAM >       3.80 GB

     Check: negative core charge=   -0.000024
     Generating pointlists ...
     new r_m :   0.0799 (alat units)  2.1438 (a.u.) for type    1
     new r_m :   0.0799 (alat units)  2.1438 (a.u.) for type    2
     new r_m :   0.0799 (alat units)  2.1438 (a.u.) for type    3

     The potential is recalculated from file :
     ./tmp/NiI2.save/charge-density

     Starting wfcs are   36 randomized atomic wfcs +  164 random wfcs

     Band Structure Calculation
     Davidson diagonalization with overlap

     Computing kpt #:     1  of    29 on this pool
     total cpu time spent up to now is       24.8 secs

     Computing kpt #:     2  of    29 on this pool
     total cpu time spent up to now is       35.6 secs

     Computing kpt #:     3  of    29 on this pool
     total cpu time spent up to now is       46.2 secs

     Computing kpt #:     4  of    29 on this pool
     total cpu time spent up to now is       56.8 secs

     Computing kpt #:     5  of    29 on this pool
     total cpu time spent up to now is       67.3 secs

     Computing kpt #:     6  of    29 on this pool
     total cpu time spent up to now is       77.7 secs

     Computing kpt #:     7  of    29 on this pool
     total cpu time spent up to now is       88.3 secs

     Computing kpt #:     8  of    29 on this pool
     total cpu time spent up to now is       99.1 secs

     Computing kpt #:     9  of    29 on this pool
     total cpu time spent up to now is      109.4 secs

     Computing kpt #:    10  of    29 on this pool
     total cpu time spent up to now is      120.0 secs

     Computing kpt #:    11  of    29 on this pool
     total cpu time spent up to now is      130.9 secs

     Computing kpt #:    12  of    29 on this pool
     total cpu time spent up to now is      141.5 secs

     Computing kpt #:    13  of    29 on this pool
     total cpu time spent up to now is      151.9 secs

     Computing kpt #:    14  of    29 on this pool
     total cpu time spent up to now is      162.2 secs

     Computing kpt #:    15  of    29 on this pool
     total cpu time spent up to now is      172.6 secs

     Computing kpt #:    16  of    29 on this pool
     total cpu time spent up to now is      182.9 secs

     Computing kpt #:    17  of    29 on this pool
     total cpu time spent up to now is      193.5 secs

     Computing kpt #:    18  of    29 on this pool
     total cpu time spent up to now is      204.2 secs

     Computing kpt #:    19  of    29 on this pool
     total cpu time spent up to now is      214.9 secs

     Computing kpt #:    20  of    29 on this pool
     total cpu time spent up to now is      225.6 secs

     Computing kpt #:    21  of    29 on this pool
     total cpu time spent up to now is      235.8 secs

     Computing kpt #:    22  of    29 on this pool
     total cpu time spent up to now is      246.6 secs

     Computing kpt #:    23  of    29 on this pool
     total cpu time spent up to now is      257.4 secs

     Computing kpt #:    24  of    29 on this pool
     total cpu time spent up to now is      268.1 secs

     Computing kpt #:    25  of    29 on this pool
     total cpu time spent up to now is      278.8 secs

     Computing kpt #:    26  of    29 on this pool
     total cpu time spent up to now is      289.6 secs

     Computing kpt #:    27  of    29 on this pool
     total cpu time spent up to now is      300.2 secs

     Computing kpt #:    28  of    29 on this pool
     total cpu time spent up to now is      310.8 secs

     Computing kpt #:    29  of    29 on this pool
     total cpu time spent up to now is      321.3 secs

     ethr =  9.37E-13,  avg # of iterations = 35.0

     total cpu time spent up to now is      321.3 secs

     End of band structure calculation

 ------ SPIN UP ------------


          k = 0.0000 0.0000 0.0000 (  7403 PWs)   bands (ev):

  -102.8533-101.7100 -61.7711 -61.7225 -61.7225 -60.4563 -60.4563 -60.4477
    -8.3003  -8.0597  -7.4813  -7.2033   0.4239   1.0416   1.7325   1.7325
     2.8128   2.8128   3.1332   3.1935   3.1935   3.5270   4.0898   4.0898
     4.2831   4.3558   4.4292   4.4292   4.6857   4.6857   5.3848   5.3848
     6.3375   6.3375   8.6434   9.6616   9.8416   9.8557  11.5711  11.5711
    11.7513  11.7513  12.2026  12.6300  14.0359  14.1039  14.1039  14.4190
    14.4190  14.5070  15.6206  15.8485  15.9153  16.4342  16.4342  16.4572
    16.4572  17.0395  17.0398  17.0398  17.1134  17.6188  17.6188  19.1548
    19.3693  19.4095  19.4095  20.8047  20.8047  21.1537  21.1537  21.1821
    21.4319  22.7753  22.7753  23.3536  24.5892  25.0882  25.0882  25.2094
    25.2094  25.5878  25.9188  26.3132  26.6573  27.5867  27.5867  27.7662
    27.7662  30.4392  30.9970  30.9970  31.7892  32.3374  32.5151  32.5818
    32.5818  32.6862  33.3341  33.5387  33.7778  34.0658  34.1929  34.1929
    34.3500  34.3500  34.4382  34.5777  34.5777  34.6332  34.6332  35.4501
    35.4501  35.6110  35.6110  36.4936  36.4936  36.6340  36.6340  36.7110
    36.7110  36.8477  36.8477  37.9448  38.3411  39.5637  39.5637  40.1432
    40.3752  40.5867  40.6191  40.7845  40.9724  40.9724  41.1519  41.1519
    41.2366  41.2896  41.3745  41.3745  42.0599  42.0599  42.2568  42.5766
    42.6967  42.8799  42.8799  43.2564  43.2564  43.3814  43.6422  43.7596
    43.7596  44.0621  44.4887  44.6230  44.6230  44.9057  45.0745  45.2841
    45.2841  45.5431  45.9769  45.9769  46.9550  47.3804  47.8765  47.8765
    47.8834  47.8834  48.2079  48.2190  48.5480  48.5480  48.7346  49.0701
    49.2602  49.2602  49.3271  49.3271  49.4806  49.7014  49.7014  50.0223
    50.4149  50.4149  50.4813  50.4813  50.5450  50.5450  50.5629  50.5629
    50.6765  50.6765  51.2068  51.2068  51.3865  51.3865  52.2814  52.2814

     occupation numbers 
     1.0000   1.0000   1.0000   1.0000   1.0000   1.0000   1.0000   1.0000
     1.0000   1.0000   1.0000   1.0000   1.0000   1.0000   1.0000   1.0000
     1.0000   1.0000   1.0000   1.0000   1.0000   1.0000   1.0000   1.0000
     1.0000   1.0000   1.0000   1.0000   1.0000   1.0000   1.0000   1.0000
     0.0000   0.0000   0.0000   0.0000   0.0000   0.0000   0.0000   0.0000
     0.0000   0.0000   0.0000   0.0000   0.0000   0.0000   0.0000   0.0000
     0.0000   0.0000   0.0000   0.0000   0.0000   0.0000   0.0000   0.0000
     0.0000   0.0000   0.0000   0.0000   0.0000   0.0000   0.0000   0.0000
     0.0000   0.0000   0.0000   0.0000   0.0000   0.0000   0.0000   0.0000
     0.0000   0.0000   0.0000   0.0000   0.0000   0.0000   0.0000   0.0000
     0.0000   0.0000   0.0000   0.0000   0.0000   0.0000   0.0000   0.0000
     0.0000   0.0000   0.0000   0.0000   0.0000   0.0000   0.0000   0.0000
     0.0000   0.0000   0.0000   0.0000   0.0000   0.0000   0.0000   0.0000
     0.0000   0.0000   0.0000   0.0000   0.0000   0.0000   0.0000   0.0000
     0.0000   0.0000   0.0000   0.0000   0.0000   0.0000   0.0000   0.0000
     0.0000   0.0000   0.0000   0.0000   0.0000   0.0000   0.0000   0.0000
     0.0000   0.0000   0.0000   0.0000   0.0000   0.0000   0.0000   0.0000
     0.0000   0.0000   0.0000   0.0000   0.0000   0.0000   0.0000   0.0000
     0.0000   0.0000   0.0000   0.0000   0.0000   0.0000   0.0000   0.0000
     0.0000   0.0000   0.0000   0.0000   0.0000   0.0000   0.0000   0.0000
     0.0000   0.0000   0.0000   0.0000   0.0000   0.0000   0.0000   0.0000
     0.0000   0.0000   0.0000   0.0000   0.0000   0.0000   0.0000   0.0000
     0.0000   0.0000   0.0000   0.0000   0.0000   0.0000   0.0000   0.0000
     0.0000   0.0000   0.0000   0.0000   0.0000   0.0000   0.0000   0.0000
     0.0000   0.0000   0.0000   0.0000   0.0000   0.0000   0.0000   0.0000

          k =-0.3590-0.2073 0.0338 (  7457 PWs)   bands (ev):

  -102.8566-101.7132 -61.7903 -61.7671 -61.7594 -60.5051 -60.4940 -60.4687
    -8.2307  -7.9898  -7.4429  -7.1659   0.5076   1.0905   1.5808   1.7037
     2.5152   2.7910   3.0080   3.0987   3.3579   3.3680   3.7175   3.9174
     4.0727   4.1647   4.3487   4.3876   4.6200   4.6758   4.9773   5.2976
     5.9575   6.2456   9.1122  10.0272  10.1545  10.3719  11.0624  11.5848
    11.8435  11.9977  12.0303  13.0456  13.4103  13.6482  13.8358  14.2636
    14.6325  14.8114  15.3735  15.5121  15.6714  16.3663  16.4225  16.5581
    16.7314  17.0369  17.4632  17.6832  17.8224  18.3736  18.7856  19.1602
    19.3421  19.4930  19.9191  20.3437  20.5942  20.7215  21.2889  21.7737
    22.3133  22.7582  22.8955  23.5428  24.3288  24.6089  25.1823  25.4251
    25.7352  26.0895  26.1832  26.5145  27.0257  27.0682  28.1125  28.1376
    29.0941  29.4475  30.4751  30.6733  30.8053  30.8446  31.7064  31.8365
    31.9442  32.1435  32.2542  32.6397  32.7659  32.9699  33.0778  33.3515
    33.7562  33.8813  34.0195  34.0865  34.2315  34.9658  35.2338  35.3074
    35.6757  35.8263  36.1772  36.4450  36.9839  37.4480  37.7102  37.7974
    37.9507  38.1481  38.1914  38.5757  38.9818  39.2113  39.2673  39.5265
    39.5492  39.9036  40.1182  40.4277  40.4800  40.5832  40.7372  40.7372
    41.0426  41.1342  41.5179  41.5793  41.5902  41.9526  42.0246  42.1646
    42.3365  42.4140  42.6829  42.7474  42.8248  43.2161  43.6541  43.7598
    43.8417  44.4949  44.5325  44.6383  44.9749  45.0475  45.2082  46.0546
    46.1012  46.2488  46.3682  46.4824  46.5992  46.7924  46.8097  46.8783
    46.9577  47.3223  47.3944  47.8760  48.1375  48.3146  48.3708  48.5424
    48.6680  48.9718  49.4050  49.4306  49.6244  49.6518  49.8116  49.9464
    50.1598  50.4199  50.5767  50.5952  51.0711  51.1933  51.2713  51.2961
    51.5109  51.7251  51.8012  51.9229  51.9865  52.3413  52.4678  52.7721

     occupation numbers 
     1.0000   1.0000   1.0000   1.0000   1.0000   1.0000   1.0000   1.0000
     1.0000   1.0000   1.0000   1.0000   1.0000   1.0000   1.0000   1.0000
     1.0000   1.0000   1.0000   1.0000   1.0000   1.0000   1.0000   1.0000
     1.0000   1.0000   1.0000   1.0000   1.0000   1.0000   1.0000   1.0000
     0.0000   0.0000   0.0000   0.0000   0.0000   0.0000   0.0000   0.0000
     0.0000   0.0000   0.0000   0.0000   0.0000   0.0000   0.0000   0.0000
     0.0000   0.0000   0.0000   0.0000   0.0000   0.0000   0.0000   0.0000
     0.0000   0.0000   0.0000   0.0000   0.0000   0.0000   0.0000   0.0000
     0.0000   0.0000   0.0000   0.0000   0.0000   0.0000   0.0000   0.0000
     0.0000   0.0000   0.0000   0.0000   0.0000   0.0000   0.0000   0.0000
     0.0000   0.0000   0.0000   0.0000   0.0000   0.0000   0.0000   0.0000
     0.0000   0.0000   0.0000   0.0000   0.0000   0.0000   0.0000   0.0000
     0.0000   0.0000   0.0000   0.0000   0.0000   0.0000   0.0000   0.0000
     0.0000   0.0000   0.0000   0.0000   0.0000   0.0000   0.0000   0.0000
     0.0000   0.0000   0.0000   0.0000   0.0000   0.0000   0.0000   0.0000
     0.0000   0.0000   0.0000   0.0000   0.0000   0.0000   0.0000   0.0000
     0.0000   0.0000   0.0000   0.0000   0.0000   0.0000   0.0000   0.0000
     0.0000   0.0000   0.0000   0.0000   0.0000   0.0000   0.0000   0.0000
     0.0000   0.0000   0.0000   0.0000   0.0000   0.0000   0.0000   0.0000
     0.0000   0.0000   0.0000   0.0000   0.0000   0.0000   0.0000   0.0000
     0.0000   0.0000   0.0000   0.0000   0.0000   0.0000   0.0000   0.0000
     0.0000   0.0000   0.0000   0.0000   0.0000   0.0000   0.0000   0.0000
     0.0000   0.0000   0.0000   0.0000   0.0000   0.0000   0.0000   0.0000
     0.0000   0.0000   0.0000   0.0000   0.0000   0.0000   0.0000   0.0000
     0.0000   0.0000   0.0000   0.0000   0.0000   0.0000   0.0000   0.0000

          k =-0.7180-0.4145 0.0675 (  7460 PWs)   bands (ev):

  -102.8568-101.7135 -61.7978 -61.7670 -61.7642 -60.5025 -60.5018 -60.4792
    -8.0343  -7.7922  -7.3419  -7.0673   0.7301   1.1566   1.3601   1.7121
     2.0367   2.3251   2.8072   2.8299   3.0129   3.2216   3.6345   3.6595
     3.8241   3.9753   4.0758   4.1136   4.4938   4.5856   4.6230   5.1949
     5.6217   6.1537   9.4260   9.6400  10.1866  11.1270  11.3459  11.6319
    12.3907  12.5453  12.7055  12.7570  12.9306  13.2678  13.7559  14.0654
    14.5899  14.6578  15.1111  15.4268  15.6475  16.3191  16.3799  17.2676
    18.0599  18.1967  18.2362  18.3959  18.6320  18.8140  19.0831  19.7334
    20.3591  20.4279  20.5914  20.8563  21.0267  21.1606  21.3553  22.1369
    22.1863  23.7708  23.8930  24.1764  24.3684  24.6973  24.9877  25.6619
    25.7695  27.0581  27.2349  27.3767  27.5394  27.6192  27.8019  27.8292
    27.9344  28.3123  28.7649  28.9127  29.1691  29.2481  30.1678  30.2880
    30.6549  30.9432  31.0626  31.6437  31.9518  32.2269  33.1895  33.4614
    33.5945  34.0188  34.0542  34.4913  34.8530  34.9008  35.1701  35.3660
    35.4222  35.6084  35.9584  36.0225  36.0335  36.5781  36.9117  37.0425
    37.2138  37.7700  38.1476  38.2552  38.5670  38.5704  38.6670  38.7575
    38.9866  39.0886  39.1918  39.5441  39.6878  40.2521  40.5485  41.0826
    41.4283  41.6720  41.7201  41.8336  42.0880  42.2520  42.2816  42.4989
    42.5595  42.8900  43.0921  43.1028  43.2238  43.3399  43.5156  43.6352
    43.6942  43.8214  44.0986  44.3941  44.7044  44.8529  44.9466  45.1667
    45.5436  45.9053  45.9522  46.0674  46.0769  46.1270  46.3954  46.6654
    47.1176  47.1496  47.5296  47.7143  47.8482  47.9851  48.1379  48.1616
    48.3921  48.6584  49.1580  49.3355  49.7853  50.0872  50.1213  50.3760
    50.8098  50.9899  51.1649  51.2532  51.3599  51.6472  51.6586  51.8802
    51.9029  51.9578  52.0726  52.2028  52.3191  52.4358  52.6469  52.9182

     occupation numbers 
     1.0000   1.0000   1.0000   1.0000   1.0000   1.0000   1.0000   1.0000
     1.0000   1.0000   1.0000   1.0000   1.0000   1.0000   1.0000   1.0000
     1.0000   1.0000   1.0000   1.0000   1.0000   1.0000   1.0000   1.0000
     1.0000   1.0000   1.0000   1.0000   1.0000   1.0000   1.0000   1.0000
     0.0000   0.0000   0.0000   0.0000   0.0000   0.0000   0.0000   0.0000
     0.0000   0.0000   0.0000   0.0000   0.0000   0.0000   0.0000   0.0000
     0.0000   0.0000   0.0000   0.0000   0.0000   0.0000   0.0000   0.0000
     0.0000   0.0000   0.0000   0.0000   0.0000   0.0000   0.0000   0.0000
     0.0000   0.0000   0.0000   0.0000   0.0000   0.0000   0.0000   0.0000
     0.0000   0.0000   0.0000   0.0000   0.0000   0.0000   0.0000   0.0000
     0.0000   0.0000   0.0000   0.0000   0.0000   0.0000   0.0000   0.0000
     0.0000   0.0000   0.0000   0.0000   0.0000   0.0000   0.0000   0.0000
     0.0000   0.0000   0.0000   0.0000   0.0000   0.0000   0.0000   0.0000
     0.0000   0.0000   0.0000   0.0000   0.0000   0.0000   0.0000   0.0000
     0.0000   0.0000   0.0000   0.0000   0.0000   0.0000   0.0000   0.0000
     0.0000   0.0000   0.0000   0.0000   0.0000   0.0000   0.0000   0.0000
     0.0000   0.0000   0.0000   0.0000   0.0000   0.0000   0.0000   0.0000
     0.0000   0.0000   0.0000   0.0000   0.0000   0.0000   0.0000   0.0000
     0.0000   0.0000   0.0000   0.0000   0.0000   0.0000   0.0000   0.0000
     0.0000   0.0000   0.0000   0.0000   0.0000   0.0000   0.0000   0.0000
     0.0000   0.0000   0.0000   0.0000   0.0000   0.0000   0.0000   0.0000
     0.0000   0.0000   0.0000   0.0000   0.0000   0.0000   0.0000   0.0000
     0.0000   0.0000   0.0000   0.0000   0.0000   0.0000   0.0000   0.0000
     0.0000   0.0000   0.0000   0.0000   0.0000   0.0000   0.0000   0.0000
     0.0000   0.0000   0.0000   0.0000   0.0000   0.0000   0.0000   0.0000

          k =-1.0769-0.6218 0.1013 (  7420 PWs)   bands (ev):

  -102.8546-101.7113 -61.7971 -61.7527 -61.7176 -60.4875 -60.4815 -60.4519
    -7.7544  -7.5099  -7.2223  -6.9510   0.7373   0.9237   1.1494   1.4739
     1.7535   1.8227   2.3676   2.8504   2.9376   3.1409   3.2261   3.3970
     3.6257   3.7748   3.8127   4.0358   4.4438   4.4568   4.6350   5.1411
     5.7325   6.1311   8.6789   8.9394  10.4019  10.8856  10.9811  11.8509
    12.2805  12.6141  12.8317  12.8335  12.9375  13.8869  14.3752  14.6151
    15.2723  15.3916  15.8846  15.8990  16.2039  16.5362  16.8826  17.2937
    17.6127  18.1088  18.5259  18.6692  19.2125  20.0467  20.6622  21.0567
    21.1471  21.3175  21.8991  22.1664  22.1738  22.4402  22.6520  22.8748
    23.2987  23.5589  23.7927  24.5998  24.6952  25.0244  25.0387  25.3024
    25.5564  25.7874  25.8920  25.9729  26.1755  26.6402  26.6910  26.9667
    27.4179  28.3045  28.5409  28.5602  29.4546  29.6102  29.8982  30.1873
    30.5636  30.9296  31.0490  31.1942  31.6936  32.0426  32.5258  33.0324
    33.1082  33.2060  33.8565  33.8996  34.2647  34.3812  34.5609  34.5652
    34.6201  35.2543  35.4901  35.5548  35.6838  35.9010  35.9075  36.1684
    36.1869  36.2580  36.4853  36.5867  36.7337  37.3556  38.2719  38.2958
    38.5241  38.5442  39.2473  39.3773  39.3985  40.2112  40.2249  40.2569
    40.8616  41.4221  41.5639  41.6574  41.9047  41.9492  42.0275  42.3811
    42.6928  42.8425  42.9308  43.1924  43.2039  43.2526  43.2888  43.6473
    43.7919  43.8081  43.8132  44.4855  44.5529  44.6602  44.8334  44.9064
    45.2106  45.3805  45.7100  45.7737  45.9971  46.0311  46.2947  46.4536
    46.9008  47.1952  47.8748  48.1065  48.1557  48.2455  48.4109  48.7756
    48.8003  49.0687  49.3283  49.4661  49.5088  50.1658  50.2258  50.4666
    50.6294  50.7390  50.9499  50.9781  51.0177  51.7326  52.0226  52.0438
    52.4154  52.7351  52.7765  53.0387  53.2266  53.3241  53.6902  53.7796

     occupation numbers 
     1.0000   1.0000   1.0000   1.0000   1.0000   1.0000   1.0000   1.0000
     1.0000   1.0000   1.0000   1.0000   1.0000   1.0000   1.0000   1.0000
     1.0000   1.0000   1.0000   1.0000   1.0000   1.0000   1.0000   1.0000
     1.0000   1.0000   1.0000   1.0000   1.0000   1.0000   1.0000   1.0000
     0.0000   0.0000   0.0000   0.0000   0.0000   0.0000   0.0000   0.0000
     0.0000   0.0000   0.0000   0.0000   0.0000   0.0000   0.0000   0.0000
     0.0000   0.0000   0.0000   0.0000   0.0000   0.0000   0.0000   0.0000
     0.0000   0.0000   0.0000   0.0000   0.0000   0.0000   0.0000   0.0000
     0.0000   0.0000   0.0000   0.0000   0.0000   0.0000   0.0000   0.0000
     0.0000   0.0000   0.0000   0.0000   0.0000   0.0000   0.0000   0.0000
     0.0000   0.0000   0.0000   0.0000   0.0000   0.0000   0.0000   0.0000
     0.0000   0.0000   0.0000   0.0000   0.0000   0.0000   0.0000   0.0000
     0.0000   0.0000   0.0000   0.0000   0.0000   0.0000   0.0000   0.0000
     0.0000   0.0000   0.0000   0.0000   0.0000   0.0000   0.0000   0.0000
     0.0000   0.0000   0.0000   0.0000   0.0000   0.0000   0.0000   0.0000
     0.0000   0.0000   0.0000   0.0000   0.0000   0.0000   0.0000   0.0000
     0.0000   0.0000   0.0000   0.0000   0.0000   0.0000   0.0000   0.0000
     0.0000   0.0000   0.0000   0.0000   0.0000   0.0000   0.0000   0.0000
     0.0000   0.0000   0.0000   0.0000   0.0000   0.0000   0.0000   0.0000
     0.0000   0.0000   0.0000   0.0000   0.0000   0.0000   0.0000   0.0000
     0.0000   0.0000   0.0000   0.0000   0.0000   0.0000   0.0000   0.0000
     0.0000   0.0000   0.0000   0.0000   0.0000   0.0000   0.0000   0.0000
     0.0000   0.0000   0.0000   0.0000   0.0000   0.0000   0.0000   0.0000
     0.0000   0.0000   0.0000   0.0000   0.0000   0.0000   0.0000   0.0000
     0.0000   0.0000   0.0000   0.0000   0.0000   0.0000   0.0000   0.0000

          k =-1.4359-0.8290 0.1351 (  7429 PWs)   bands (ev):

  -102.8553-101.7119 -61.8005 -61.7549 -61.7364 -60.4900 -60.4852 -60.4708
    -7.4714  -7.2233  -7.1513  -6.8836   0.1920   0.4059   0.9793   1.2238
     1.7502   1.8693   2.4571   2.8110   2.8488   2.9316   3.1381   3.2242
     3.2487   3.5290   3.5903   4.0222   4.3075   4.3268   4.7644   5.1088
     5.8819   6.1160   8.1402   8.4218  10.3036  10.5027  10.7924  11.5071
    11.7193  11.8758  12.5577  12.7373  13.6339  14.7710  15.1279  15.5194
    15.9283  16.3428  16.7659  16.8712  17.0493  17.1724  17.3902  17.6382
    18.1405  18.2624  18.9009  19.2719  19.8620  20.3457  21.4598  21.7165
    21.9243  21.9529  21.9966  22.1000  22.5094  22.7161  23.2255  23.3615
    23.6866  23.8916  23.9312  24.0732  24.3367  24.3811  24.5468  24.6437
    24.7384  24.9409  25.3224  26.0783  26.8612  27.0241  27.4044  27.9218
    28.2561  28.4014  28.7748  28.8565  29.1771  29.5434  29.6223  30.1106
    30.3654  30.4088  30.4718  30.8859  31.1386  31.2189  31.4410  31.7423
    31.8314  31.9986  32.6157  32.9286  33.3132  33.3780  33.6403  33.7276
    33.8114  34.3387  34.8599  35.1277  35.3301  35.9364  36.1042  36.1345
    36.6849  36.9477  36.9704  37.0781  37.1863  37.2827  37.5797  37.9687
    38.2371  38.3170  38.5007  39.1189  39.2101  39.5901  39.9450  40.0044
    40.0313  40.2100  40.7589  41.0086  41.0485  41.2377  41.2906  41.4721
    41.8033  41.9058  42.0793  42.1951  42.4926  42.7072  42.7797  42.8915
    43.0443  43.5794  43.6860  44.0634  44.1543  44.3253  44.8037  44.9462
    45.1105  45.6395  45.6811  46.2836  46.3377  46.5458  46.7793  47.0704
    47.2211  47.5646  47.7831  48.0186  48.1885  48.4336  49.1387  49.4259
    49.5262  49.6745  49.7217  49.7426  50.2851  50.3574  50.4756  50.8472
    50.9013  51.1563  51.3169  51.4962  51.5559  51.6816  51.9310  51.9587
    52.1921  52.7357  52.8305  53.0814  53.1568  53.8903  53.9081  54.3712

     occupation numbers 
     1.0000   1.0000   1.0000   1.0000   1.0000   1.0000   1.0000   1.0000
     1.0000   1.0000   1.0000   1.0000   1.0000   1.0000   1.0000   1.0000
     1.0000   1.0000   1.0000   1.0000   1.0000   1.0000   1.0000   1.0000
     1.0000   1.0000   1.0000   1.0000   1.0000   1.0000   1.0000   1.0000
     0.0000   0.0000   0.0000   0.0000   0.0000   0.0000   0.0000   0.0000
     0.0000   0.0000   0.0000   0.0000   0.0000   0.0000   0.0000   0.0000
     0.0000   0.0000   0.0000   0.0000   0.0000   0.0000   0.0000   0.0000
     0.0000   0.0000   0.0000   0.0000   0.0000   0.0000   0.0000   0.0000
     0.0000   0.0000   0.0000   0.0000   0.0000   0.0000   0.0000   0.0000
     0.0000   0.0000   0.0000   0.0000   0.0000   0.0000   0.0000   0.0000
     0.0000   0.0000   0.0000   0.0000   0.0000   0.0000   0.0000   0.0000
     0.0000   0.0000   0.0000   0.0000   0.0000   0.0000   0.0000   0.0000
     0.0000   0.0000   0.0000   0.0000   0.0000   0.0000   0.0000   0.0000
     0.0000   0.0000   0.0000   0.0000   0.0000   0.0000   0.0000   0.0000
     0.0000   0.0000   0.0000   0.0000   0.0000   0.0000   0.0000   0.0000
     0.0000   0.0000   0.0000   0.0000   0.0000   0.0000   0.0000   0.0000
     0.0000   0.0000   0.0000   0.0000   0.0000   0.0000   0.0000   0.0000
     0.0000   0.0000   0.0000   0.0000   0.0000   0.0000   0.0000   0.0000
     0.0000   0.0000   0.0000   0.0000   0.0000   0.0000   0.0000   0.0000
     0.0000   0.0000   0.0000   0.0000   0.0000   0.0000   0.0000   0.0000
     0.0000   0.0000   0.0000   0.0000   0.0000   0.0000   0.0000   0.0000
     0.0000   0.0000   0.0000   0.0000   0.0000   0.0000   0.0000   0.0000
     0.0000   0.0000   0.0000   0.0000   0.0000   0.0000   0.0000   0.0000
     0.0000   0.0000   0.0000   0.0000   0.0000   0.0000   0.0000   0.0000
     0.0000   0.0000   0.0000   0.0000   0.0000   0.0000   0.0000   0.0000

          k = 1.7949 1.0363-0.1689 (  7408 PWs)   bands (ev):

  -102.8541-101.7108 -61.7943 -61.7315 -61.7315 -60.4787 -60.4663 -60.4659
    -7.3216  -7.1581  -7.0707  -6.8907  -0.0436   0.1541   0.9220   1.1110
     1.7561   1.9138   2.6893   2.8450   2.8463   2.9613   2.9622   3.1506
     3.1656   3.4467   3.4587   4.0484   4.2282   4.2998   4.8513   5.1075
     5.9658   6.1244   7.9799   8.2274  10.2254  10.3579  10.9977  11.1035
    11.4931  11.5327  12.5160  12.6640  14.4386  14.4703  15.4346  15.4813
    16.1737  16.1945  16.8680  17.0152  17.8448  17.9556  18.6796  18.7358
    18.7499  18.8934  20.1574  20.2139  20.2903  20.4590  20.6767  20.7833
    20.9540  21.0159  21.2659  21.4756  21.7056  21.7486  22.4813  22.5228
    23.1219  23.1972  23.9467  24.0312  25.5946  25.7941  25.8573  26.0241
    26.3643  26.4544  26.7705  26.9092  26.9656  27.0346  27.5234  27.5458
    28.1641  28.3765  28.8295  28.8354  28.9976  29.0622  29.5827  29.6321
    29.6397  29.6551  29.6855  29.8125  30.0465  30.0664  30.5835  30.6452
    31.4129  31.4888  31.6014  31.6320  33.5189  33.5852  34.7115  34.7455
    35.2012  35.2269  35.5815  35.6193  35.6725  35.7096  35.8145  35.9697
    36.0525  36.1547  37.0102  37.0443  37.5115  37.5902  37.6331  37.6694
    37.8352  37.8865  38.0209  38.0537  38.1582  38.2257  40.0314  40.0631
    40.1958  40.2198  40.6090  40.6404  40.8219  40.9882  41.0363  41.0600
    41.7211  41.8675  42.0716  42.0997  42.4243  42.4308  42.5321  42.6832
    43.1872  43.2502  43.6977  43.7181  44.4507  44.5293  44.7274  44.8429
    44.9168  44.9618  45.4225  45.4252  46.0592  46.0892  46.5813  46.6969
    48.0071  48.0314  48.0988  48.1365  48.6845  48.6848  49.2217  49.3233
    49.4371  49.4426  49.8563  49.9027  50.4917  50.4937  50.5081  50.5624
    51.0040  51.0106  51.1665  51.2518  52.0704  52.1002  52.2172  52.2915
    53.1466  53.1556  53.7802  53.8175  54.4888  54.4958  54.5798  54.6413

     occupation numbers 
     1.0000   1.0000   1.0000   1.0000   1.0000   1.0000   1.0000   1.0000
     1.0000   1.0000   1.0000   1.0000   1.0000   1.0000   1.0000   1.0000
     1.0000   1.0000   1.0000   1.0000   1.0000   1.0000   1.0000   1.0000
     1.0000   1.0000   1.0000   1.0000   1.0000   1.0000   1.0000   1.0000
     0.0000   0.0000   0.0000   0.0000   0.0000   0.0000   0.0000   0.0000
     0.0000   0.0000   0.0000   0.0000   0.0000   0.0000   0.0000   0.0000
     0.0000   0.0000   0.0000   0.0000   0.0000   0.0000   0.0000   0.0000
     0.0000   0.0000   0.0000   0.0000   0.0000   0.0000   0.0000   0.0000
     0.0000   0.0000   0.0000   0.0000   0.0000   0.0000   0.0000   0.0000
     0.0000   0.0000   0.0000   0.0000   0.0000   0.0000   0.0000   0.0000
     0.0000   0.0000   0.0000   0.0000   0.0000   0.0000   0.0000   0.0000
     0.0000   0.0000   0.0000   0.0000   0.0000   0.0000   0.0000   0.0000
     0.0000   0.0000   0.0000   0.0000   0.0000   0.0000   0.0000   0.0000
     0.0000   0.0000   0.0000   0.0000   0.0000   0.0000   0.0000   0.0000
     0.0000   0.0000   0.0000   0.0000   0.0000   0.0000   0.0000   0.0000
     0.0000   0.0000   0.0000   0.0000   0.0000   0.0000   0.0000   0.0000
     0.0000   0.0000   0.0000   0.0000   0.0000   0.0000   0.0000   0.0000
     0.0000   0.0000   0.0000   0.0000   0.0000   0.0000   0.0000   0.0000
     0.0000   0.0000   0.0000   0.0000   0.0000   0.0000   0.0000   0.0000
     0.0000   0.0000   0.0000   0.0000   0.0000   0.0000   0.0000   0.0000
     0.0000   0.0000   0.0000   0.0000   0.0000   0.0000   0.0000   0.0000
     0.0000   0.0000   0.0000   0.0000   0.0000   0.0000   0.0000   0.0000
     0.0000   0.0000   0.0000   0.0000   0.0000   0.0000   0.0000   0.0000
     0.0000   0.0000   0.0000   0.0000   0.0000   0.0000   0.0000   0.0000
     0.0000   0.0000   0.0000   0.0000   0.0000   0.0000   0.0000   0.0000

          k =-0.3590 0.2073 0.0675 (  7443 PWs)   bands (ev):

  -102.8558-101.7123 -61.7866 -61.7531 -61.7502 -60.4884 -60.4849 -60.4689
    -8.2305  -7.9901  -7.4424  -7.1661   0.5115   1.0827   1.6016   1.7146
     2.5283   2.7999   3.0121   3.1209   3.3553   3.3807   3.7173   3.9341
     4.0840   4.1644   4.3510   4.3842   4.6147   4.6806   4.9849   5.3039
     5.9746   6.2548   9.1261  10.0218  10.1581  10.3694  11.0846  11.4853
    11.8397  12.0046  12.1298  12.9744  13.4578  13.6689  13.8240  14.2810
    14.6260  14.8006  15.2680  15.5660  15.6161  16.4363  16.5491  16.5994
    16.8091  16.9777  17.5404  17.5895  17.8285  18.1544  18.8958  19.0974
    19.2126  19.4930  20.0018  20.2010  20.3012  21.0600  21.6094  22.1013
    22.4001  22.5766  23.2039  23.3839  23.7578  24.2363  24.9235  25.0616
    26.1841  26.2537  26.5286  26.7584  27.1241  27.3497  27.7452  28.4881
    28.7506  29.9993  30.1235  30.4717  30.5356  30.7112  31.4580  31.8370
    31.9064  32.1504  32.2147  32.2345  32.9176  33.2821  33.3069  33.7710
    33.7917  33.9266  34.0169  34.2785  34.3390  34.7431  35.0875  35.0996
    35.7779  36.0441  36.2505  36.4121  36.9821  37.5221  37.5504  37.7396
    37.8966  38.1636  38.1793  38.8527  38.9393  39.1197  39.1480  39.3967
    39.5743  39.8215  39.9406  40.1830  40.2085  40.5127  40.8633  40.9816
    40.9919  41.0891  41.5243  41.5769  41.9493  42.0118  42.2217  42.2987
    42.3923  42.4083  42.6368  42.7107  42.8202  43.0148  43.8097  43.8803
    43.9301  44.4575  44.5087  44.5939  44.9495  45.0944  45.1383  45.9495
    46.0773  46.2739  46.3899  46.5546  46.6995  46.7155  46.7784  46.9402
    47.0602  47.3192  47.4491  47.9857  48.0423  48.2423  48.2941  48.3107
    48.7661  48.9072  49.2443  49.4442  49.5529  49.7168  49.8663  49.9223
    50.0017  50.0374  50.4870  50.8089  50.9598  51.0878  51.1207  51.5760
    51.7415  51.7487  51.9710  52.1248  52.2591  52.3906  52.6134  52.7782

     occupation numbers 
     1.0000   1.0000   1.0000   1.0000   1.0000   1.0000   1.0000   1.0000
     1.0000   1.0000   1.0000   1.0000   1.0000   1.0000   1.0000   1.0000
     1.0000   1.0000   1.0000   1.0000   1.0000   1.0000   1.0000   1.0000
     1.0000   1.0000   1.0000   1.0000   1.0000   1.0000   1.0000   1.0000
     0.0000   0.0000   0.0000   0.0000   0.0000   0.0000   0.0000   0.0000
     0.0000   0.0000   0.0000   0.0000   0.0000   0.0000   0.0000   0.0000
     0.0000   0.0000   0.0000   0.0000   0.0000   0.0000   0.0000   0.0000
     0.0000   0.0000   0.0000   0.0000   0.0000   0.0000   0.0000   0.0000
     0.0000   0.0000   0.0000   0.0000   0.0000   0.0000   0.0000   0.0000
     0.0000   0.0000   0.0000   0.0000   0.0000   0.0000   0.0000   0.0000
     0.0000   0.0000   0.0000   0.0000   0.0000   0.0000   0.0000   0.0000
     0.0000   0.0000   0.0000   0.0000   0.0000   0.0000   0.0000   0.0000
     0.0000   0.0000   0.0000   0.0000   0.0000   0.0000   0.0000   0.0000
     0.0000   0.0000   0.0000   0.0000   0.0000   0.0000   0.0000   0.0000
     0.0000   0.0000   0.0000   0.0000   0.0000   0.0000   0.0000   0.0000
     0.0000   0.0000   0.0000   0.0000   0.0000   0.0000   0.0000   0.0000
     0.0000   0.0000   0.0000   0.0000   0.0000   0.0000   0.0000   0.0000
     0.0000   0.0000   0.0000   0.0000   0.0000   0.0000   0.0000   0.0000
     0.0000   0.0000   0.0000   0.0000   0.0000   0.0000   0.0000   0.0000
     0.0000   0.0000   0.0000   0.0000   0.0000   0.0000   0.0000   0.0000
     0.0000   0.0000   0.0000   0.0000   0.0000   0.0000   0.0000   0.0000
     0.0000   0.0000   0.0000   0.0000   0.0000   0.0000   0.0000   0.0000
     0.0000   0.0000   0.0000   0.0000   0.0000   0.0000   0.0000   0.0000
     0.0000   0.0000   0.0000   0.0000   0.0000   0.0000   0.0000   0.0000
     0.0000   0.0000   0.0000   0.0000   0.0000   0.0000   0.0000   0.0000

          k =-0.7180-0.0000 0.1013 (  7448 PWs)   bands (ev):

  -102.8561-101.7127 -61.7911 -61.7602 -61.7533 -60.4959 -60.4892 -60.4731
    -8.0971  -7.8563  -7.3721  -7.0979   0.6703   1.1464   1.4363   1.7121
     2.2045   2.6832   2.7901   2.8473   3.0943   3.3159   3.5737   3.6835
     3.8996   4.0301   4.1099   4.2936   4.5741   4.6125   4.8044   5.0510
     5.7809   6.0538   9.6381   9.9771  10.6155  10.8037  10.9875  11.3900
    11.9519  12.4034  12.5030  12.8824  13.2370  13.3384  13.4833  14.2111
    14.6673  14.7412  15.0494  15.3142  15.5796  15.8414  17.1334  17.4607
    17.5861  17.7348  17.9073  18.2116  18.5982  18.7698  19.0632  19.3576
    19.5654  20.0027  20.1090  20.6232  21.1014  21.2622  21.7086  22.1776
    22.3429  23.0250  23.5626  23.8965  23.9905  24.3875  25.1241  25.4580
    26.2849  26.5093  26.6323  27.3757  27.5776  27.8340  28.1186  28.3202
    28.4250  28.6159  29.2513  29.4613  29.6832  29.9186  30.2627  30.9586
    31.1733  31.4145  31.5339  31.9157  32.0083  32.5432  32.5633  32.8317
    33.1418  33.4905  33.6915  33.9706  34.1373  34.3854  34.7924  35.5387
    35.5584  35.7509  36.3753  36.7944  36.8106  37.1767  37.7491  37.8819
    37.9606  38.1606  38.6069  38.9323  39.1481  39.3078  39.3688  39.5685
    39.7860  39.7919  39.8238  40.0069  40.1088  40.1772  40.2046  40.3408
    40.5215  40.5669  40.7474  40.8739  41.0958  41.3982  41.6914  42.0219
    42.5032  42.5921  42.6954  42.7389  42.7703  42.9910  43.1094  43.6925
    43.8986  44.1227  44.5453  44.7076  45.3281  45.4070  45.4867  45.4976
    45.9174  46.0925  46.1237  46.5437  46.6303  46.9264  47.0496  47.1988
    47.2712  47.4728  47.6988  48.1729  48.3418  48.3794  48.4290  48.6117
    48.7562  48.7742  49.0246  49.0950  49.2820  49.7533  49.8040  49.9060
    49.9445  50.0464  50.4886  50.6204  50.8581  50.9698  51.2853  51.3495
    51.4698  51.5217  51.7098  51.8910  52.0578  52.1610  52.7040  52.9837

     occupation numbers 
     1.0000   1.0000   1.0000   1.0000   1.0000   1.0000   1.0000   1.0000
     1.0000   1.0000   1.0000   1.0000   1.0000   1.0000   1.0000   1.0000
     1.0000   1.0000   1.0000   1.0000   1.0000   1.0000   1.0000   1.0000
     1.0000   1.0000   1.0000   1.0000   1.0000   1.0000   1.0000   1.0000
     0.0000   0.0000   0.0000   0.0000   0.0000   0.0000   0.0000   0.0000
     0.0000   0.0000   0.0000   0.0000   0.0000   0.0000   0.0000   0.0000
     0.0000   0.0000   0.0000   0.0000   0.0000   0.0000   0.0000   0.0000
     0.0000   0.0000   0.0000   0.0000   0.0000   0.0000   0.0000   0.0000
     0.0000   0.0000   0.0000   0.0000   0.0000   0.0000   0.0000   0.0000
     0.0000   0.0000   0.0000   0.0000   0.0000   0.0000   0.0000   0.0000
     0.0000   0.0000   0.0000   0.0000   0.0000   0.0000   0.0000   0.0000
     0.0000   0.0000   0.0000   0.0000   0.0000   0.0000   0.0000   0.0000
     0.0000   0.0000   0.0000   0.0000   0.0000   0.0000   0.0000   0.0000
     0.0000   0.0000   0.0000   0.0000   0.0000   0.0000   0.0000   0.0000
     0.0000   0.0000   0.0000   0.0000   0.0000   0.0000   0.0000   0.0000
     0.0000   0.0000   0.0000   0.0000   0.0000   0.0000   0.0000   0.0000
     0.0000   0.0000   0.0000   0.0000   0.0000   0.0000   0.0000   0.0000
     0.0000   0.0000   0.0000   0.0000   0.0000   0.0000   0.0000   0.0000
     0.0000   0.0000   0.0000   0.0000   0.0000   0.0000   0.0000   0.0000
     0.0000   0.0000   0.0000   0.0000   0.0000   0.0000   0.0000   0.0000
     0.0000   0.0000   0.0000   0.0000   0.0000   0.0000   0.0000   0.0000
     0.0000   0.0000   0.0000   0.0000   0.0000   0.0000   0.0000   0.0000
     0.0000   0.0000   0.0000   0.0000   0.0000   0.0000   0.0000   0.0000
     0.0000   0.0000   0.0000   0.0000   0.0000   0.0000   0.0000   0.0000
     0.0000   0.0000   0.0000   0.0000   0.0000   0.0000   0.0000   0.0000

          k =-1.0769-0.2073 0.1351 (  7422 PWs)   bands (ev):

  -102.8547-101.7113 -61.7961 -61.7459 -61.7244 -60.4809 -60.4805 -60.4588
    -7.8580  -7.6155  -7.2602  -6.9891   0.8577   1.0763   1.2643   1.6862
     1.7583   2.0394   2.4411   2.6202   2.7623   3.3018   3.3298   3.4720
     3.7469   3.8132   3.9753   4.0920   4.4820   4.5144   4.6743   4.9212
     5.7404   5.9678   9.3077   9.5648  10.6467  10.9642  11.5413  11.7481
    11.9670  12.5545  12.6925  12.7408  13.1361  13.5896  13.7139  14.0085
    14.2857  14.9989  15.1512  15.8046  16.3370  16.6732  17.1088  17.3840
    17.8629  18.7023  18.7324  18.8703  19.4414  19.7044  19.8259  20.1528
    20.2527  20.7751  20.9515  21.0211  21.1507  22.3874  22.9311  23.0406
    23.1036  23.4075  23.9715  24.0478  24.6250  24.9000  25.1666  25.4354
    25.7274  25.9278  25.9922  26.4688  26.9938  27.1475  27.2262  28.1241
    28.3481  28.5052  29.0123  29.2607  29.4965  29.5353  29.5858  30.3080
    30.3660  30.7589  31.3093  31.4901  31.7552  31.9663  32.2290  32.2702
    32.3952  32.6328  33.5476  33.7165  33.8779  34.1985  34.5421  34.7804
    35.1873  35.3553  35.5741  35.7089  36.1576  36.3749  36.5349  36.7269
    37.0239  37.1870  37.4406  37.5563  38.1867  38.3322  38.4119  38.6098
    39.1411  39.3095  39.3440  39.6318  39.7653  39.9506  40.0599  40.3665
    40.5021  40.6876  40.8102  40.9640  41.1648  41.2434  41.4847  41.7641
    42.2690  42.6592  42.7225  42.9832  43.1547  43.4258  43.7039  43.7618
    44.1313  44.1740  44.4382  44.7596  44.8440  44.9301  45.3732  45.5884
    45.7885  46.1010  46.2269  46.3048  46.5858  46.7216  46.8196  47.0841
    47.3732  47.4465  47.7637  47.8560  48.0142  48.2319  48.3679  48.4847
    48.6423  49.2234  49.3129  49.3962  49.4919  49.7223  49.9707  50.2201
    50.3486  50.4473  50.9121  50.9841  50.9944  51.1192  51.6290  51.6716
    51.7219  52.1827  52.4037  52.5074  52.6105  52.9962  53.3286  53.3924

     occupation numbers 
     1.0000   1.0000   1.0000   1.0000   1.0000   1.0000   1.0000   1.0000
     1.0000   1.0000   1.0000   1.0000   1.0000   1.0000   1.0000   1.0000
     1.0000   1.0000   1.0000   1.0000   1.0000   1.0000   1.0000   1.0000
     1.0000   1.0000   1.0000   1.0000   1.0000   1.0000   1.0000   1.0000
     0.0000   0.0000   0.0000   0.0000   0.0000   0.0000   0.0000   0.0000
     0.0000   0.0000   0.0000   0.0000   0.0000   0.0000   0.0000   0.0000
     0.0000   0.0000   0.0000   0.0000   0.0000   0.0000   0.0000   0.0000
     0.0000   0.0000   0.0000   0.0000   0.0000   0.0000   0.0000   0.0000
     0.0000   0.0000   0.0000   0.0000   0.0000   0.0000   0.0000   0.0000
     0.0000   0.0000   0.0000   0.0000   0.0000   0.0000   0.0000   0.0000
     0.0000   0.0000   0.0000   0.0000   0.0000   0.0000   0.0000   0.0000
     0.0000   0.0000   0.0000   0.0000   0.0000   0.0000   0.0000   0.0000
     0.0000   0.0000   0.0000   0.0000   0.0000   0.0000   0.0000   0.0000
     0.0000   0.0000   0.0000   0.0000   0.0000   0.0000   0.0000   0.0000
     0.0000   0.0000   0.0000   0.0000   0.0000   0.0000   0.0000   0.0000
     0.0000   0.0000   0.0000   0.0000   0.0000   0.0000   0.0000   0.0000
     0.0000   0.0000   0.0000   0.0000   0.0000   0.0000   0.0000   0.0000
     0.0000   0.0000   0.0000   0.0000   0.0000   0.0000   0.0000   0.0000
     0.0000   0.0000   0.0000   0.0000   0.0000   0.0000   0.0000   0.0000
     0.0000   0.0000   0.0000   0.0000   0.0000   0.0000   0.0000   0.0000
     0.0000   0.0000   0.0000   0.0000   0.0000   0.0000   0.0000   0.0000
     0.0000   0.0000   0.0000   0.0000   0.0000   0.0000   0.0000   0.0000
     0.0000   0.0000   0.0000   0.0000   0.0000   0.0000   0.0000   0.0000
     0.0000   0.0000   0.0000   0.0000   0.0000   0.0000   0.0000   0.0000
     0.0000   0.0000   0.0000   0.0000   0.0000   0.0000   0.0000   0.0000

          k =-1.4359-0.4145 0.1689 (  7409 PWs)   bands (ev):

  -102.8540-101.7107 -61.7975 -61.7325 -61.7211 -60.4823 -60.4668 -60.4552
    -7.5736  -7.3276  -7.1622  -6.8939   0.4973   0.7132   1.0601   1.3485
     1.7253   1.8576   2.3392   2.5129   2.7104   2.9500   3.0623   3.3413
     3.4542   3.5924   3.7879   4.1143   4.3714   4.4465   4.6624   4.9280
     5.7587   6.0314   8.6738   8.9536  10.7015  10.8053  11.1893  11.6569
    11.8200  12.3591  12.3984  13.0305  13.3483  13.9815  14.3985  14.5935
    15.1852  15.5694  15.8511  16.3244  17.0210  17.0405  17.6066  17.9978
    18.5909  18.7251  18.8693  19.0510  19.7756  20.5473  20.6205  20.9436
    21.5126  21.7354  21.8766  22.3540  22.5173  22.6114  23.0987  23.1724
    23.2947  23.6893  23.9589  24.1653  24.4994  24.5618  24.7885  25.3437
    25.3910  25.6297  25.8998  26.0182  26.6076  26.7362  27.4620  27.7774
    27.8450  28.1470  28.2527  28.9759  29.1417  29.3563  29.7141  29.8816
    30.7022  31.1844  31.4902  31.7200  31.7823  31.8650  32.2176  32.3392
    32.4364  32.5023  32.8049  32.9031  33.0778  33.4337  33.5802  33.6952
    33.7840  34.0029  34.0983  34.2133  34.8991  35.1706  35.3717  36.1180
    36.1523  36.4776  36.8367  37.2090  37.8568  37.8667  38.2345  38.3204
    38.5916  38.8308  39.0207  39.2452  39.3299  39.5692  39.6331  39.8136
    40.0480  40.1580  40.4141  40.4706  40.6281  41.1635  41.2509  41.3280
    41.6890  41.8653  42.1341  42.2021  43.0037  43.1220  43.2206  43.3315
    43.5755  44.0663  44.7201  44.9910  45.2372  45.4473  45.5152  45.6565
    45.7317  46.1244  46.2711  46.4043  46.5677  46.7174  46.7593  47.0814
    47.3220  47.4528  47.7130  47.8120  47.8707  48.2216  48.5196  48.8143
    48.9333  49.3011  49.3783  49.6906  49.7899  49.9106  50.0790  50.6554
    50.8493  50.9597  51.3377  51.5064  51.6645  51.9740  52.0052  52.2188
    52.3829  52.5567  52.9834  53.0925  53.1609  53.7115  53.9095  53.9552

     occupation numbers 
     1.0000   1.0000   1.0000   1.0000   1.0000   1.0000   1.0000   1.0000
     1.0000   1.0000   1.0000   1.0000   1.0000   1.0000   1.0000   1.0000
     1.0000   1.0000   1.0000   1.0000   1.0000   1.0000   1.0000   1.0000
     1.0000   1.0000   1.0000   1.0000   1.0000   1.0000   1.0000   1.0000
     0.0000   0.0000   0.0000   0.0000   0.0000   0.0000   0.0000   0.0000
     0.0000   0.0000   0.0000   0.0000   0.0000   0.0000   0.0000   0.0000
     0.0000   0.0000   0.0000   0.0000   0.0000   0.0000   0.0000   0.0000
     0.0000   0.0000   0.0000   0.0000   0.0000   0.0000   0.0000   0.0000
     0.0000   0.0000   0.0000   0.0000   0.0000   0.0000   0.0000   0.0000
     0.0000   0.0000   0.0000   0.0000   0.0000   0.0000   0.0000   0.0000
     0.0000   0.0000   0.0000   0.0000   0.0000   0.0000   0.0000   0.0000
     0.0000   0.0000   0.0000   0.0000   0.0000   0.0000   0.0000   0.0000
     0.0000   0.0000   0.0000   0.0000   0.0000   0.0000   0.0000   0.0000
     0.0000   0.0000   0.0000   0.0000   0.0000   0.0000   0.0000   0.0000
     0.0000   0.0000   0.0000   0.0000   0.0000   0.0000   0.0000   0.0000
     0.0000   0.0000   0.0000   0.0000   0.0000   0.0000   0.0000   0.0000
     0.0000   0.0000   0.0000   0.0000   0.0000   0.0000   0.0000   0.0000
     0.0000   0.0000   0.0000   0.0000   0.0000   0.0000   0.0000   0.0000
     0.0000   0.0000   0.0000   0.0000   0.0000   0.0000   0.0000   0.0000
     0.0000   0.0000   0.0000   0.0000   0.0000   0.0000   0.0000   0.0000
     0.0000   0.0000   0.0000   0.0000   0.0000   0.0000   0.0000   0.0000
     0.0000   0.0000   0.0000   0.0000   0.0000   0.0000   0.0000   0.0000
     0.0000   0.0000   0.0000   0.0000   0.0000   0.0000   0.0000   0.0000
     0.0000   0.0000   0.0000   0.0000   0.0000   0.0000   0.0000   0.0000
     0.0000   0.0000   0.0000   0.0000   0.0000   0.0000   0.0000   0.0000

          k = 1.7949 1.4508-0.1351 (  7423 PWs)   bands (ev):

  -102.8549-101.7116 -61.7968 -61.7487 -61.7369 -60.4836 -60.4815 -60.4713
    -7.3422  -7.1387  -7.0918  -6.8725   0.0843   0.2832   0.9660   1.1829
     1.7423   1.9196   2.4160   2.5306   2.7129   2.7962   2.8676   3.1135
     3.3299   3.4280   3.5832   4.1326   4.2486   4.3234   4.7770   4.8922
     5.8687   5.9991   8.3338   8.5758  10.6576  10.8714  10.9672  11.3879
    11.5168  11.5422  12.3895  12.7924  14.1969  14.5517  14.7956  15.1519
    15.8056  16.2323  16.5070  17.0319  17.2193  17.5321  17.8127  18.2768
    19.3452  19.4411  19.6002  19.7313  20.3168  20.4635  20.5864  20.7257
    20.9977  21.3828  21.6041  21.9805  22.1109  22.6575  22.8322  23.1180
    23.6678  24.0332  24.3154  24.4352  24.8712  24.9794  25.2686  25.5486
    25.7491  26.3024  26.4561  26.6050  26.8547  27.1113  27.8529  27.8876
    28.0486  28.1309  28.4475  28.8441  29.1005  29.4854  29.6663  29.9313
    29.9581  30.0272  30.3850  30.4417  30.6162  30.6922  30.9600  31.1595
    31.7373  32.0115  32.3439  32.4573  32.8649  32.9863  33.2007  33.5155
    33.8603  34.0905  34.5919  34.7302  34.9991  35.0783  35.7901  35.9953
    36.0318  36.3835  36.9475  37.1127  37.4920  37.5537  37.7148  37.8400
    37.9466  38.2434  38.3677  38.4090  38.7386  38.9241  38.9952  39.3827
    39.6098  39.6933  39.8064  39.8661  40.4394  40.7434  41.2109  41.2831
    41.5711  41.6204  41.7778  42.3517  42.7479  42.7849  43.0141  43.1061
    43.7472  43.8525  44.2903  44.5028  44.7127  44.8567  45.0007  45.2618
    45.3284  45.8040  46.0503  46.1767  46.4580  46.7761  46.9129  47.2856
    47.3815  47.6578  47.9496  47.9748  48.2579  48.3749  48.7610  48.8678
    49.2497  49.4509  49.8406  50.1738  50.2722  50.3951  50.5284  50.8229
    51.0338  51.5153  51.5546  51.7761  52.4002  52.4916  52.7555  53.1286
    53.1880  53.3207  53.3913  53.6698  53.7494  54.0831  54.1538  54.5006

     occupation numbers 
     1.0000   1.0000   1.0000   1.0000   1.0000   1.0000   1.0000   1.0000
     1.0000   1.0000   1.0000   1.0000   1.0000   1.0000   1.0000   1.0000
     1.0000   1.0000   1.0000   1.0000   1.0000   1.0000   1.0000   1.0000
     1.0000   1.0000   1.0000   1.0000   1.0000   1.0000   1.0000   1.0000
     0.0000   0.0000   0.0000   0.0000   0.0000   0.0000   0.0000   0.0000
     0.0000   0.0000   0.0000   0.0000   0.0000   0.0000   0.0000   0.0000
     0.0000   0.0000   0.0000   0.0000   0.0000   0.0000   0.0000   0.0000
     0.0000   0.0000   0.0000   0.0000   0.0000   0.0000   0.0000   0.0000
     0.0000   0.0000   0.0000   0.0000   0.0000   0.0000   0.0000   0.0000
     0.0000   0.0000   0.0000   0.0000   0.0000   0.0000   0.0000   0.0000
     0.0000   0.0000   0.0000   0.0000   0.0000   0.0000   0.0000   0.0000
     0.0000   0.0000   0.0000   0.0000   0.0000   0.0000   0.0000   0.0000
     0.0000   0.0000   0.0000   0.0000   0.0000   0.0000   0.0000   0.0000
     0.0000   0.0000   0.0000   0.0000   0.0000   0.0000   0.0000   0.0000
     0.0000   0.0000   0.0000   0.0000   0.0000   0.0000   0.0000   0.0000
     0.0000   0.0000   0.0000   0.0000   0.0000   0.0000   0.0000   0.0000
     0.0000   0.0000   0.0000   0.0000   0.0000   0.0000   0.0000   0.0000
     0.0000   0.0000   0.0000   0.0000   0.0000   0.0000   0.0000   0.0000
     0.0000   0.0000   0.0000   0.0000   0.0000   0.0000   0.0000   0.0000
     0.0000   0.0000   0.0000   0.0000   0.0000   0.0000   0.0000   0.0000
     0.0000   0.0000   0.0000   0.0000   0.0000   0.0000   0.0000   0.0000
     0.0000   0.0000   0.0000   0.0000   0.0000   0.0000   0.0000   0.0000
     0.0000   0.0000   0.0000   0.0000   0.0000   0.0000   0.0000   0.0000
     0.0000   0.0000   0.0000   0.0000   0.0000   0.0000   0.0000   0.0000
     0.0000   0.0000   0.0000   0.0000   0.0000   0.0000   0.0000   0.0000

          k = 1.4359 1.2435-0.1013 (  7427 PWs)   bands (ev):

  -102.8552-101.7118 -61.8010 -61.7478 -61.7410 -60.4893 -60.4791 -60.4754
    -7.3420  -7.1399  -7.0905  -6.8728   0.0811   0.2871   0.9644   1.1872
     1.7446   1.9069   2.4141   2.5236   2.7066   2.7932   2.8823   3.1164
     3.3279   3.4217   3.5801   4.1304   4.2436   4.3218   4.7730   4.8922
     5.8711   5.9836   8.2916   8.6139  10.6765  10.8179  11.0038  11.3952
    11.4558  11.6265  12.5329  12.6542  13.9615  14.7470  14.8191  15.1033
    15.6811  16.3285  16.5408  16.9668  17.3638  17.6550  17.9757  18.1353
    19.2523  19.2625  19.6171  19.6519  20.1488  20.4342  20.7920  20.9423
    21.0455  21.3883  21.5361  21.7246  21.9955  22.7089  22.9676  23.2069
    23.7503  24.1831  24.2725  24.4155  24.6110  25.0562  25.3635  25.5175
    25.7065  26.3274  26.4483  26.7821  26.9920  27.2075  27.7404  27.8201
    27.9106  28.3330  28.4825  28.5958  28.6988  29.2727  29.6116  29.8599
    29.9167  30.1028  30.3125  30.3664  30.8436  31.0635  31.1174  31.3698
    31.5581  32.2092  32.2697  32.4543  33.0283  33.1179  33.2869  33.5995
    33.8751  34.0666  34.2677  34.3684  34.6951  35.1958  35.6038  35.7949
    36.3740  36.7010  36.9032  37.1061  37.5200  37.5996  37.7001  37.7574
    37.9220  38.2481  38.3000  38.5207  38.6440  39.0442  39.2093  39.4618
    39.5647  39.6180  39.8958  40.2755  40.4230  40.7073  40.7903  40.9839
    41.3061  41.6562  41.8301  42.2925  42.3942  42.7309  43.1073  43.5222
    43.8372  44.0354  44.2426  44.6445  44.7313  44.8474  45.0040  45.3864
    45.4481  45.6948  46.0058  46.0660  46.5590  46.7739  46.9242  47.0184
    47.1459  47.3911  48.1941  48.3089  48.6138  48.6759  48.9143  48.9301
    49.1199  49.4100  49.6011  49.6753  50.0780  50.1977  50.5046  50.7116
    51.3643  51.4273  51.7565  51.9749  52.0447  52.5724  52.5881  52.9099
    52.9390  53.4739  53.6149  53.8623  53.9712  54.2582  54.2648  54.3792

     occupation numbers 
     1.0000   1.0000   1.0000   1.0000   1.0000   1.0000   1.0000   1.0000
     1.0000   1.0000   1.0000   1.0000   1.0000   1.0000   1.0000   1.0000
     1.0000   1.0000   1.0000   1.0000   1.0000   1.0000   1.0000   1.0000
     1.0000   1.0000   1.0000   1.0000   1.0000   1.0000   1.0000   1.0000
     0.0000   0.0000   0.0000   0.0000   0.0000   0.0000   0.0000   0.0000
     0.0000   0.0000   0.0000   0.0000   0.0000   0.0000   0.0000   0.0000
     0.0000   0.0000   0.0000   0.0000   0.0000   0.0000   0.0000   0.0000
     0.0000   0.0000   0.0000   0.0000   0.0000   0.0000   0.0000   0.0000
     0.0000   0.0000   0.0000   0.0000   0.0000   0.0000   0.0000   0.0000
     0.0000   0.0000   0.0000   0.0000   0.0000   0.0000   0.0000   0.0000
     0.0000   0.0000   0.0000   0.0000   0.0000   0.0000   0.0000   0.0000
     0.0000   0.0000   0.0000   0.0000   0.0000   0.0000   0.0000   0.0000
     0.0000   0.0000   0.0000   0.0000   0.0000   0.0000   0.0000   0.0000
     0.0000   0.0000   0.0000   0.0000   0.0000   0.0000   0.0000   0.0000
     0.0000   0.0000   0.0000   0.0000   0.0000   0.0000   0.0000   0.0000
     0.0000   0.0000   0.0000   0.0000   0.0000   0.0000   0.0000   0.0000
     0.0000   0.0000   0.0000   0.0000   0.0000   0.0000   0.0000   0.0000
[...]

     occupation numbers 
     1.0000   1.0000   1.0000   1.0000   1.0000   1.0000   1.0000   1.0000
     1.0000   1.0000   1.0000   1.0000   1.0000   1.0000   1.0000   1.0000
     1.0000   1.0000   1.0000   1.0000   1.0000   1.0000   1.0000   1.0000
     1.0000   1.0000   1.0000   1.0000   1.0000   1.0000   1.0000   1.0000
     0.0000   0.0000   0.0000   0.0000   0.0000   0.0000   0.0000   0.0000
     0.0000   0.0000   0.0000   0.0000   0.0000   0.0000   0.0000   0.0000
     0.0000   0.0000   0.0000   0.0000   0.0000   0.0000   0.0000   0.0000
     0.0000   0.0000   0.0000   0.0000   0.0000   0.0000   0.0000   0.0000
     0.0000   0.0000   0.0000   0.0000   0.0000   0.0000   0.0000   0.0000
     0.0000   0.0000   0.0000   0.0000   0.0000   0.0000   0.0000   0.0000
     0.0000   0.0000   0.0000   0.0000   0.0000   0.0000   0.0000   0.0000
     0.0000   0.0000   0.0000   0.0000   0.0000   0.0000   0.0000   0.0000
     0.0000   0.0000   0.0000   0.0000   0.0000   0.0000   0.0000   0.0000
     0.0000   0.0000   0.0000   0.0000   0.0000   0.0000   0.0000   0.0000
     0.0000   0.0000   0.0000   0.0000   0.0000   0.0000   0.0000   0.0000
     0.0000   0.0000   0.0000   0.0000   0.0000   0.0000   0.0000   0.0000
     0.0000   0.0000   0.0000   0.0000   0.0000   0.0000   0.0000   0.0000
     0.0000   0.0000   0.0000   0.0000   0.0000   0.0000   0.0000   0.0000
     0.0000   0.0000   0.0000   0.0000   0.0000   0.0000   0.0000   0.0000
     0.0000   0.0000   0.0000   0.0000   0.0000   0.0000   0.0000   0.0000
     0.0000   0.0000   0.0000   0.0000   0.0000   0.0000   0.0000   0.0000
     0.0000   0.0000   0.0000   0.0000   0.0000   0.0000   0.0000   0.0000
     0.0000   0.0000   0.0000   0.0000   0.0000   0.0000   0.0000   0.0000
     0.0000   0.0000   0.0000   0.0000   0.0000   0.0000   0.0000   0.0000
     0.0000   0.0000   0.0000   0.0000   0.0000   0.0000   0.0000   0.0000

          k = 2.8718 1.6581 0.1351 (  7446 PWs)   bands (ev):

  -102.8560-101.7126 -61.8022 -61.7591 -61.7408 -60.4945 -60.4867 -60.4749
    -8.0309  -7.7999  -7.3303  -7.0737   0.8230   1.0047   1.4206   1.7220
     2.0507   2.3255   2.8094   2.8152   3.0041   3.2442   3.6526   3.7475
     3.7804   4.0509   4.1086   4.1153   4.4555   4.5839   4.5958   5.2017
     5.6199   6.1608   9.4303   9.6517  10.2946  10.8305  11.4983  11.8107
    12.1795  12.3976  12.5355  13.0307  13.2694  13.5174  13.5849  13.7290
    14.6020  14.7203  15.0601  15.3464  15.8539  16.2188  16.2246  17.3882
    17.7336  17.7530  18.6796  18.7513  19.0228  19.2115  19.2745  19.5561
    19.7416  20.1525  20.6235  20.7039  21.0315  21.0763  21.2755  21.8207
    23.2475  23.4219  23.9191  23.9392  24.7357  24.7987  25.4810  25.5395
    26.2288  26.3205  26.6215  26.7745  27.2105  27.2462  27.6274  27.7808
    28.5853  28.7869  28.9016  29.1346  29.3097  29.8453  30.3230  30.3366
    30.9224  30.9473  30.9717  31.4774  32.1277  32.2587  32.5681  33.2229
    33.5981  33.8435  33.9683  34.4001  34.6962  34.8898  35.0714  35.3197
    35.3388  35.5388  35.6649  35.8654  36.5771  36.9364  36.9744  37.4822
    37.6920  37.7778  37.8843  37.9708  38.0362  38.7106  38.7293  38.8949
    39.0533  39.1146  39.5859  39.8689  39.9129  39.9284  40.4463  40.9644
    41.3648  41.3967  41.6154  41.6383  41.9304  42.2280  42.3534  42.5283
    42.6895  42.8211  43.0641  43.1303  43.3279  43.7068  43.7290  43.9054
    44.1533  44.2849  44.3403  44.5249  44.5595  44.6010  44.6749  44.8739
    44.9757  45.0663  45.4508  46.0183  46.1365  46.1885  46.8947  46.9050
    46.9435  46.9887  47.3449  47.3916  47.9248  47.9420  47.9441  48.1799
    48.8164  49.0373  49.1815  49.5646  49.7495  49.9750  50.2880  50.5195
    50.7086  50.9023  50.9480  51.1905  51.2809  51.3982  51.8528  51.9524
    52.0358  52.1748  52.4868  52.6134  52.6599  52.8120  52.8484  52.9356

     occupation numbers 
     1.0000   1.0000   1.0000   1.0000   1.0000   1.0000   1.0000   1.0000
     1.0000   1.0000   1.0000   1.0000   1.0000   1.0000   1.0000   1.0000
     1.0000   1.0000   1.0000   1.0000   1.0000   1.0000   1.0000   1.0000
     1.0000   1.0000   1.0000   1.0000   1.0000   1.0000   1.0000   1.0000
     0.0000   0.0000   0.0000   0.0000   0.0000   0.0000   0.0000   0.0000
     0.0000   0.0000   0.0000   0.0000   0.0000   0.0000   0.0000   0.0000
     0.0000   0.0000   0.0000   0.0000   0.0000   0.0000   0.0000   0.0000
     0.0000   0.0000   0.0000   0.0000   0.0000   0.0000   0.0000   0.0000
     0.0000   0.0000   0.0000   0.0000   0.0000   0.0000   0.0000   0.0000
     0.0000   0.0000   0.0000   0.0000   0.0000   0.0000   0.0000   0.0000
     0.0000   0.0000   0.0000   0.0000   0.0000   0.0000   0.0000   0.0000
     0.0000   0.0000   0.0000   0.0000   0.0000   0.0000   0.0000   0.0000
     0.0000   0.0000   0.0000   0.0000   0.0000   0.0000   0.0000   0.0000
     0.0000   0.0000   0.0000   0.0000   0.0000   0.0000   0.0000   0.0000
     0.0000   0.0000   0.0000   0.0000   0.0000   0.0000   0.0000   0.0000
     0.0000   0.0000   0.0000   0.0000   0.0000   0.0000   0.0000   0.0000
     0.0000   0.0000   0.0000   0.0000   0.0000   0.0000   0.0000   0.0000
     0.0000   0.0000   0.0000   0.0000   0.0000   0.0000   0.0000   0.0000
     0.0000   0.0000   0.0000   0.0000   0.0000   0.0000   0.0000   0.0000
     0.0000   0.0000   0.0000   0.0000   0.0000   0.0000   0.0000   0.0000
     0.0000   0.0000   0.0000   0.0000   0.0000   0.0000   0.0000   0.0000
     0.0000   0.0000   0.0000   0.0000   0.0000   0.0000   0.0000   0.0000
     0.0000   0.0000   0.0000   0.0000   0.0000   0.0000   0.0000   0.0000
     0.0000   0.0000   0.0000   0.0000   0.0000   0.0000   0.0000   0.0000
     0.0000   0.0000   0.0000   0.0000   0.0000   0.0000   0.0000   0.0000

          k = 3.2308-1.8653-0.2026 (  7471 PWs)   bands (ev):

  -102.8575-101.7139 -61.8163 -61.7706 -61.7548 -60.5061 -60.5007 -60.4903
    -8.2268  -7.9988  -7.4289  -7.1751   0.6496   0.8621   1.6024   1.6995
     2.5514   2.7905   2.9912   3.1033   3.3207   3.6444   3.7282   3.8804
     3.9173   4.0943   4.2750   4.3501   4.6180   4.6718   4.9682   5.2989
     5.9563   6.2400   9.4979   9.7001  10.1759  10.3050  11.1068  11.3087
    11.8436  11.9974  12.4413  12.6001  13.6140  13.7900  14.2731  14.3304
    14.5521  14.5587  14.7979  15.5999  15.8341  16.1331  16.5576  16.6353
    16.9171  17.1158  17.3783  17.7341  18.0368  18.3851  18.6443  18.8272
    19.0083  19.0676  20.0207  20.3395  20.8779  21.5175  21.7191  22.2372
    22.3792  22.6541  23.0611  23.3214  23.7102  23.7550  24.4191  24.8744
    25.1788  26.1613  26.1676  27.4329  27.8817  28.6017  28.7120  29.1483
    29.2112  29.3705  29.8024  30.0560  30.5396  30.6962  30.8125  31.0530
    31.6509  31.7428  31.7910  31.9462  32.1033  32.7415  33.5921  33.6372
    33.7691  33.8820  34.0859  35.1247  35.4308  35.5811  35.5951  35.7997
    35.9505  36.6034  36.8744  36.8759  36.9246  37.1007  37.4816  37.6313
    38.0347  38.1451  38.1495  38.1814  38.3478  38.4731  38.6359  38.6837
    39.1448  39.5536  39.5707  39.6295  39.7695  39.8296  41.1999  41.4210
    41.4960  41.7288  41.7717  41.7938  41.9314  42.0472  42.2334  42.2451
    42.4144  42.4399  42.5497  42.6122  43.5148  43.6418  43.7569  44.3348
    44.5313  44.5852  44.8297  44.9354  45.2330  45.3491  45.6262  45.6823
    45.7591  45.8552  46.0786  46.3461  46.3786  46.4430  46.7988  46.8898
    46.8928  46.9342  47.1197  47.2245  47.4642  48.0441  48.2101  48.3742
    48.4364  48.9754  49.3967  49.5191  49.5699  49.7518  49.8241  50.0059
    50.0202  50.1047  50.4677  50.6314  50.7464  51.0628  51.6399  51.8603
    51.9195  51.9611  52.1668  52.2872  52.3269  52.3938  52.9150  53.0812

     occupation numbers 
     1.0000   1.0000   1.0000   1.0000   1.0000   1.0000   1.0000   1.0000
     1.0000   1.0000   1.0000   1.0000   1.0000   1.0000   1.0000   1.0000
     1.0000   1.0000   1.0000   1.0000   1.0000   1.0000   1.0000   1.0000
     1.0000   1.0000   1.0000   1.0000   1.0000   1.0000   1.0000   1.0000
     0.0000   0.0000   0.0000   0.0000   0.0000   0.0000   0.0000   0.0000
     0.0000   0.0000   0.0000   0.0000   0.0000   0.0000   0.0000   0.0000
     0.0000   0.0000   0.0000   0.0000   0.0000   0.0000   0.0000   0.0000
     0.0000   0.0000   0.0000   0.0000   0.0000   0.0000   0.0000   0.0000
     0.0000   0.0000   0.0000   0.0000   0.0000   0.0000   0.0000   0.0000
     0.0000   0.0000   0.0000   0.0000   0.0000   0.0000   0.0000   0.0000
     0.0000   0.0000   0.0000   0.0000   0.0000   0.0000   0.0000   0.0000
     0.0000   0.0000   0.0000   0.0000   0.0000   0.0000   0.0000   0.0000
     0.0000   0.0000   0.0000   0.0000   0.0000   0.0000   0.0000   0.0000
     0.0000   0.0000   0.0000   0.0000   0.0000   0.0000   0.0000   0.0000
     0.0000   0.0000   0.0000   0.0000   0.0000   0.0000   0.0000   0.0000
     0.0000   0.0000   0.0000   0.0000   0.0000   0.0000   0.0000   0.0000
     0.0000   0.0000   0.0000   0.0000   0.0000   0.0000   0.0000   0.0000
     0.0000   0.0000   0.0000   0.0000   0.0000   0.0000   0.0000   0.0000
     0.0000   0.0000   0.0000   0.0000   0.0000   0.0000   0.0000   0.0000
     0.0000   0.0000   0.0000   0.0000   0.0000   0.0000   0.0000   0.0000
     0.0000   0.0000   0.0000   0.0000   0.0000   0.0000   0.0000   0.0000
     0.0000   0.0000   0.0000   0.0000   0.0000   0.0000   0.0000   0.0000
     0.0000   0.0000   0.0000   0.0000   0.0000   0.0000   0.0000   0.0000
     0.0000   0.0000   0.0000   0.0000   0.0000   0.0000   0.0000   0.0000
     0.0000   0.0000   0.0000   0.0000   0.0000   0.0000   0.0000   0.0000

          k = 2.8718-2.0726-0.1689 (  7454 PWs)   bands (ev):

  -102.8566-101.7130 -61.8005 -61.7581 -61.7561 -60.4936 -60.4911 -60.4848
    -8.0938  -7.8640  -7.3606  -7.1051   0.7800   0.9690   1.4816   1.7092
     2.2287   2.6651   2.7884   2.8517   3.0607   3.3027   3.6598   3.7775
     3.8244   4.0345   4.1079   4.2271   4.5701   4.5948   4.7722   5.0612
     5.7708   6.0492   9.7295   9.9445  10.7916  10.8230  10.9541  10.9954
    12.2448  12.2997  12.5529  12.6670  13.4375  13.5430  13.7010  13.8620
    14.4916  14.6074  15.0559  15.1478  15.9753  16.0612  16.9130  16.9921
    17.7375  17.7575  17.9675  18.1044  18.8013  18.8504  19.4715  19.5340
    19.8255  19.8610  19.8622  20.0113  21.1988  21.2952  21.9522  21.9567
    22.4954  22.5206  23.5408  23.6089  24.9613  25.0307  25.4354  25.4560
    25.9733  25.9884  26.1244  26.1459  27.8606  27.9964  28.1603  28.1680
    28.9562  29.0008  29.4029  29.5897  30.0283  30.0644  30.7354  30.7576
    31.2070  31.3473  31.5918  31.7066  32.0116  32.0163  32.5228  32.5742
    33.1412  33.2525  33.6333  33.7194  33.9810  33.9974  35.1427  35.2914
    36.1508  36.2110  36.6899  36.7014  36.8840  36.9006  37.8318  37.9483
    38.3623  38.4454  38.7815  38.8579  38.9084  38.9883  39.1808  39.3087
    39.7098  39.7669  40.0176  40.0540  40.0817  40.0892  40.1548  40.2464
    40.4774  40.5493  40.6497  40.6865  41.1563  41.1566  41.7714  41.8364
    42.6373  42.7112  42.7624  42.8002  43.2713  43.3184  43.9267  44.0053
    44.1132  44.1641  44.4083  44.4179  44.8081  44.8182  45.4660  45.4714
    45.6132  45.6140  46.3106  46.3527  46.6063  46.7083  47.0009  47.0134
    47.2750  47.3604  47.8476  47.8491  48.1310  48.2806  48.5908  48.6021
    49.0365  49.0743  49.2359  49.3407  49.6644  49.7190  49.7753  49.8010
    50.2782  50.3362  50.4953  50.5553  50.9231  50.9940  51.1898  51.1981
    51.6340  51.6781  51.8645  51.8724  52.2074  52.2251  52.7409  52.7922

     occupation numbers 
     1.0000   1.0000   1.0000   1.0000   1.0000   1.0000   1.0000   1.0000
     1.0000   1.0000   1.0000   1.0000   1.0000   1.0000   1.0000   1.0000
     1.0000   1.0000   1.0000   1.0000   1.0000   1.0000   1.0000   1.0000
     1.0000   1.0000   1.0000   1.0000   1.0000   1.0000   1.0000   1.0000
     0.0000   0.0000   0.0000   0.0000   0.0000   0.0000   0.0000   0.0000
     0.0000   0.0000   0.0000   0.0000   0.0000   0.0000   0.0000   0.0000
     0.0000   0.0000   0.0000   0.0000   0.0000   0.0000   0.0000   0.0000
     0.0000   0.0000   0.0000   0.0000   0.0000   0.0000   0.0000   0.0000
     0.0000   0.0000   0.0000   0.0000   0.0000   0.0000   0.0000   0.0000
     0.0000   0.0000   0.0000   0.0000   0.0000   0.0000   0.0000   0.0000
     0.0000   0.0000   0.0000   0.0000   0.0000   0.0000   0.0000   0.0000
     0.0000   0.0000   0.0000   0.0000   0.0000   0.0000   0.0000   0.0000
     0.0000   0.0000   0.0000   0.0000   0.0000   0.0000   0.0000   0.0000
     0.0000   0.0000   0.0000   0.0000   0.0000   0.0000   0.0000   0.0000
     0.0000   0.0000   0.0000   0.0000   0.0000   0.0000   0.0000   0.0000
     0.0000   0.0000   0.0000   0.0000   0.0000   0.0000   0.0000   0.0000
     0.0000   0.0000   0.0000   0.0000   0.0000   0.0000   0.0000   0.0000
     0.0000   0.0000   0.0000   0.0000   0.0000   0.0000   0.0000   0.0000
     0.0000   0.0000   0.0000   0.0000   0.0000   0.0000   0.0000   0.0000
     0.0000   0.0000   0.0000   0.0000   0.0000   0.0000   0.0000   0.0000
     0.0000   0.0000   0.0000   0.0000   0.0000   0.0000   0.0000   0.0000
     0.0000   0.0000   0.0000   0.0000   0.0000   0.0000   0.0000   0.0000
     0.0000   0.0000   0.0000   0.0000   0.0000   0.0000   0.0000   0.0000
     0.0000   0.0000   0.0000   0.0000   0.0000   0.0000   0.0000   0.0000
     0.0000   0.0000   0.0000   0.0000   0.0000   0.0000   0.0000   0.0000

          k = 0.0000 0.0000-0.5066 (  7440 PWs)   bands (ev):

  -102.8556-101.7121 -61.8188 -61.7303 -61.7303 -60.5035 -60.4652 -60.4652
    -8.2963  -8.0694  -7.4662  -7.2136   0.5804   0.7909   1.7161   1.7161
     2.8045   2.8045   3.1777   3.1777   3.3905   3.5991   3.9259   4.0659
     4.0659   4.2172   4.4323   4.4323   4.6817   4.6817   5.3793   5.3793
     6.3180   6.3180   9.1586   9.3346   9.6890   9.8025  11.5933  11.5933
    11.7231  11.7231  12.3550  12.4142  14.1476  14.1476  14.1946  14.3786
    14.3786  14.4426  15.8417  15.9022  16.3042  16.3042  16.4490  16.4490
    16.4787  16.5195  17.2339  17.3213  17.3849  17.3849  17.4422  17.4422
    19.7103  19.7103  19.8372  19.8372  21.8088  21.8173  22.3770  22.3770
    22.3964  22.4510  22.4510  22.4582  22.7937  22.8103  24.6975  24.6975
    24.8093  24.8093  27.9320  27.9393  28.2091  28.2091  28.2580  28.2580
    29.0950  29.1165  29.8586  29.8590  31.0155  31.0155  31.0234  31.0234
    32.3426  32.5074  33.7974  33.9672  33.9672  34.0476  34.1375  34.1375
    35.1022  35.1118  35.3841  35.3841  35.5150  35.5150  36.1248  36.1248
    36.1729  36.1729  36.2039  36.2719  36.2719  36.3009  36.4055  36.4055
    36.7622  36.7622  36.8358  36.8358  38.2121  38.2281  38.7131  38.7131
    38.7521  38.7521  40.5574  40.6211  40.8295  40.9686  41.6187  41.6187
    41.6422  41.6658  41.7339  41.7339  42.0787  42.0839  42.4818  42.4818
    42.6714  42.6714  43.2110  43.2846  43.8809  44.0450  44.3859  44.3859
    44.4686  44.4686  44.9199  44.9860  45.2399  45.2399  45.2623  45.2623
    45.6675  45.7268  45.8679  46.0018  46.5439  46.5439  46.7034  46.7034
    47.4398  47.4398  47.5068  47.5068  48.6622  48.7067  48.8304  48.8304
    48.9522  48.9522  49.0288  49.0707  49.3637  49.3637  49.5496  49.5496
    50.3818  50.3818  50.4308  50.4308  50.7498  50.7587  50.8679  50.8679
    50.8978  50.8978  51.0869  51.1641  52.3392  52.3392  52.3479  52.3479

     occupation numbers 
     1.0000   1.0000   1.0000   1.0000   1.0000   1.0000   1.0000   1.0000
     1.0000   1.0000   1.0000   1.0000   1.0000   1.0000   1.0000   1.0000
     1.0000   1.0000   1.0000   1.0000   1.0000   1.0000   1.0000   1.0000
     1.0000   1.0000   1.0000   1.0000   1.0000   1.0000   1.0000   1.0000
     0.0000   0.0000   0.0000   0.0000   0.0000   0.0000   0.0000   0.0000
     0.0000   0.0000   0.0000   0.0000   0.0000   0.0000   0.0000   0.0000
     0.0000   0.0000   0.0000   0.0000   0.0000   0.0000   0.0000   0.0000
     0.0000   0.0000   0.0000   0.0000   0.0000   0.0000   0.0000   0.0000
     0.0000   0.0000   0.0000   0.0000   0.0000   0.0000   0.0000   0.0000
     0.0000   0.0000   0.0000   0.0000   0.0000   0.0000   0.0000   0.0000
     0.0000   0.0000   0.0000   0.0000   0.0000   0.0000   0.0000   0.0000
     0.0000   0.0000   0.0000   0.0000   0.0000   0.0000   0.0000   0.0000
     0.0000   0.0000   0.0000   0.0000   0.0000   0.0000   0.0000   0.0000
     0.0000   0.0000   0.0000   0.0000   0.0000   0.0000   0.0000   0.0000
     0.0000   0.0000   0.0000   0.0000   0.0000   0.0000   0.0000   0.0000
     0.0000   0.0000   0.0000   0.0000   0.0000   0.0000   0.0000   0.0000
     0.0000   0.0000   0.0000   0.0000   0.0000   0.0000   0.0000   0.0000
     0.0000   0.0000   0.0000   0.0000   0.0000   0.0000   0.0000   0.0000
     0.0000   0.0000   0.0000   0.0000   0.0000   0.0000   0.0000   0.0000
     0.0000   0.0000   0.0000   0.0000   0.0000   0.0000   0.0000   0.0000
     0.0000   0.0000   0.0000   0.0000   0.0000   0.0000   0.0000   0.0000
     0.0000   0.0000   0.0000   0.0000   0.0000   0.0000   0.0000   0.0000
     0.0000   0.0000   0.0000   0.0000   0.0000   0.0000   0.0000   0.0000
     0.0000   0.0000   0.0000   0.0000   0.0000   0.0000   0.0000   0.0000
     0.0000   0.0000   0.0000   0.0000   0.0000   0.0000   0.0000   0.0000

     highest occupied, lowest unoccupied level (ev):     5.3848    5.5833

     Writing all to output data dir ./tmp/NiI2.save/ :
     XML data file, pseudopotentials, collected wavefunctions

     init_run     :      1.14s CPU      1.29s WALL (       1 calls)
     electrons    :    302.85s CPU    307.27s WALL (       1 calls)

     Called by init_run:
     wfcinit      :      0.00s CPU      0.00s WALL (       1 calls)
     wfcinit:atom :      0.00s CPU      0.00s WALL (      29 calls)
     wfcinit:wfcr :      8.94s CPU      9.07s WALL (      29 calls)
     potinit      :      0.12s CPU      0.20s WALL (       1 calls)
     hinit0       :      0.88s CPU      0.95s WALL (       1 calls)

     Called by electrons:
     c_bands      :    302.77s CPU    307.18s WALL (       1 calls)
     v_of_rho     :      0.06s CPU      0.09s WALL (       1 calls)
     v_h          :      0.00s CPU      0.00s WALL (       1 calls)
     v_xc         :      0.06s CPU      0.09s WALL (       1 calls)

     Called by c_bands:
     init_us_2    :      0.01s CPU      0.01s WALL (      29 calls)
     cegterg      :    288.33s CPU    292.55s WALL (      58 calls)

     Called by sum_band:

     Called by *egterg:
     cdiaghg      :    125.22s CPU    126.26s WALL (    1047 calls)
     cegterg:over :      7.19s CPU      7.82s WALL (    1018 calls)
     cegterg:upda :      3.88s CPU      3.97s WALL (    1018 calls)
     cegterg:last :      8.24s CPU      8.97s WALL (     546 calls)
     cdiaghg:chol :      2.68s CPU      2.85s WALL (    1047 calls)
     cdiaghg:inve :      2.48s CPU      2.52s WALL (    1047 calls)
     cdiaghg:para :     17.69s CPU     18.37s WALL (    2094 calls)
     h_psi        :    151.79s CPU    153.48s WALL (    1105 calls)
     g_psi        :      0.09s CPU      0.09s WALL (    1018 calls)

     Called by h_psi:
     h_psi:calbec :      1.15s CPU      1.20s WALL (    1105 calls)
     vloc_psi     :    149.65s CPU    151.26s WALL (    1105 calls)
                                        0.00s GPU  (    1105 calls)
     add_vuspsi   :      0.92s CPU      0.93s WALL (    1105 calls)

     General routines
     calbec       :      1.14s CPU      1.20s WALL (    1105 calls)
     fft          :      0.87s CPU      0.93s WALL (      19 calls)
     fftw         :    136.01s CPU    137.43s WALL (  230290 calls)
     davcio       :      0.02s CPU      0.05s WALL (      58 calls)

     Parallel routines

     PWSCF        :   5m10.57s CPU   5m24.67s WALL


   This run was terminated on:  11:46: 3   5Mar2026            

=------------------------------------------------------------------------------=
   JOB DONE.
=------------------------------------------------------------------------------=
